#INFO: **** input file is /burg/ccce/users/eav2136/projects/batteries/01_mp2/hf_script.py ****
#!/usr/bin/env python3
from pyscf import gto, scf, mp
import sys
from fileutils import dump
import h5py

mol = gto.Mole()
mol.verbose = 10
mol.atom = f"geom_{sys.argv[1]}.xyz"
mol.basis = "ccpvtz"
mol.unit = "ANG"
mol.build()

mf = scf.RHF(mol)
# determine the output of mf.kernel()
mf.kernel()

conv = mf.converged
e_tot = mf.e_tot
mo_energy = mf.mo_energy
mo_coeff = mf.mo_coeff

dataout = {}
dataout["e_tot"] = e_tot
dataout["conv"] = conv
dump(dataout, f"data/hf_geom_{sys.argv[1]}.json")

with h5py.File(f"data/hf_geom_{sys.argv[1]}.h5", "w") as f:
    f.create_dataset("mo_energy", data=mo_energy)
    f.create_dataset("mo_coeff", data=mo_coeff)#INFO: ******************** input file end ********************


System: uname_result(system='Linux', node='g103', release='4.18.0-193.el8.x86_64', version='#1 SMP Fri Mar 27 14:35:58 UTC 2020', machine='x86_64')  Threads 32
Python 3.10.12 (main, Jul 29 2023, 11:27:27) [GCC 13.2.0]
numpy 1.25.1  scipy 1.10.1
Date: Fri Jan 19 11:37:45 2024
PySCF version 2.0.1
PySCF path  /burg/berkelbach/users/eav2136/builds/pyscf/projected-cvs/pyscf
GIT ORIG_HEAD 0bfbc692adf3ea63b8a509210433219cd1c472a2
GIT HEAD (branch projected-cvs) e14caaa2dddc538b9be2d86f01e5b456fc92da36

[ENV] PYSCF_TMPDIR /burg/ccce/users/eav2136/projects/batteries/01_mp2/tmp
[ENV] PYSCF_MAX_MEMORY 700000
[CONFIG] DEBUG = False
[CONFIG] MAX_MEMORY = 700000
[CONFIG] TMPDIR = /burg/ccce/users/eav2136/projects/batteries/01_mp2/tmp
[CONFIG] UNIT = angstrom
[CONFIG] VERBOSE = 3
[CONFIG] conf_file = None
[INPUT] verbose = 10
[INPUT] max_memory = 700000 
[INPUT] num. atoms = 30
[INPUT] num. electrons = 106
[INPUT] charge = 0
[INPUT] spin (= nelec alpha-beta = 2S) = 0
[INPUT] symmetry False subgroup None
[INPUT] Mole.unit = ANG
[INPUT]  1 C      4.889700000000   4.599650000000  10.258310000000 AA    9.240193831286   8.692078768856  19.385396400887 Bohr
[INPUT]  2 O      4.870170000000   4.245790000000   8.952570000000 AA    9.203287480073   8.023380282417  16.917905410997 Bohr
[INPUT]  3 C      5.310840000000   5.193710000000   8.233300000000 AA   10.036033091385   9.814689470415  15.558682101382 Bohr
[INPUT]  4 O      5.765780000000   6.111200000000   8.982240000000 AA   10.895745094495  11.548494292442  16.973973585113 Bohr
[INPUT]  5 C      5.774150000000   5.702340000000  10.272330000000 AA   10.911562102157  10.775860869152  19.411890361153 Bohr
[INPUT]  6 O      5.299720000000   5.216150000000   7.112960000000 AA   10.015019336880   9.857094924650  13.441546334986 Bohr
[INPUT]  7 H      5.212360000000   3.798320000000  10.814180000000 AA    9.849932862638   7.177784533458  20.435838461749 Bohr
[INPUT]  8 H      3.953110000000   4.871240000000  10.548100000000 AA    7.470295240279   9.205309487026  19.933020134525 Bohr
[INPUT]  9 H      5.464720000000   6.479910000000  10.867980000000 AA   10.326824147433  12.245255211830  20.537505727251 Bohr
[INPUT] 10 H      6.716790000000   5.418990000000  10.529430000000 AA   12.692893536217  10.240406971757  19.897738947779 Bohr
[INPUT] 11 Li     5.263950000000   5.263950000000   5.263950000000 AA    9.947423833404   9.947423833404   9.947423833404 Bohr
[INPUT] 12 Li     5.263950000000   1.754650000000   5.263950000000 AA    9.947423833404   3.315807944468   9.947423833404 Bohr
[INPUT] 13 Li     8.773250000000   5.263950000000   5.263950000000 AA   16.579039722340   9.947423833404   9.947423833404 Bohr
[INPUT] 14 Li     1.754650000000   5.263950000000   5.263950000000 AA    3.315807944468   9.947423833404   9.947423833404 Bohr
[INPUT] 15 Li     5.263950000000   8.773250000000   5.263950000000 AA    9.947423833404  16.579039722340   9.947423833404 Bohr
[INPUT] 16 Li     7.018600000000   3.509300000000   3.509300000000 AA   13.263231777872   6.631615888936   6.631615888936 Bohr
[INPUT] 17 Li     3.509300000000   3.509300000000   3.509300000000 AA    6.631615888936   6.631615888936   6.631615888936 Bohr
[INPUT] 18 Li     7.018600000000   7.018600000000   3.509300000000 AA   13.263231777872  13.263231777872   6.631615888936 Bohr
[INPUT] 19 Li     3.509300000000   7.018600000000   3.509300000000 AA    6.631615888936  13.263231777872   6.631615888936 Bohr
[INPUT] 20 Li     8.773250000000   1.754650000000   5.263950000000 AA   16.579039722340   3.315807944468   9.947423833404 Bohr
[INPUT] 21 Li     1.754650000000   1.754650000000   5.263950000000 AA    3.315807944468   3.315807944468   9.947423833404 Bohr
[INPUT] 22 Li     8.773250000000   8.773250000000   5.263950000000 AA   16.579039722340  16.579039722340   9.947423833404 Bohr
[INPUT] 23 Li     1.754650000000   8.773250000000   5.263950000000 AA    3.315807944468  16.579039722340   9.947423833404 Bohr
[INPUT] 24 Li     5.263950000000   5.263950000000   1.754650000000 AA    9.947423833404   9.947423833404   3.315807944468 Bohr
[INPUT] 25 Li     5.263950000000   1.754650000000   1.754650000000 AA    9.947423833404   3.315807944468   3.315807944468 Bohr
[INPUT] 26 Li     8.773250000000   5.263950000000   1.754650000000 AA   16.579039722340   9.947423833404   3.315807944468 Bohr
[INPUT] 27 Li     1.754650000000   5.263950000000   1.754650000000 AA    3.315807944468   9.947423833404   3.315807944468 Bohr
[INPUT] 28 Li     5.263950000000   8.773250000000   1.754650000000 AA    9.947423833404  16.579039722340   3.315807944468 Bohr
[INPUT] 29 Li     7.018600000000   0.000000000000   3.509300000000 AA   13.263231777872   0.000000000000   6.631615888936 Bohr
[INPUT] 30 Li     3.509300000000   0.000000000000   3.509300000000 AA    6.631615888936   0.000000000000   6.631615888936 Bohr
[INPUT] ---------------- BASIS SET ---------------- 
[INPUT] l, kappa, [nprim/nctr], expnt,             c_1 c_2 ...
[INPUT] H
[INPUT] 0    0    [3    /1   ]  33.87             0.006068
                                5.095             0.045308
                                1.159             0.202822
[INPUT] 0    0    [1    /1   ]  0.3258               1
[INPUT] 0    0    [1    /1   ]  0.1027               1
[INPUT] 1    0    [1    /1   ]  1.407                1
[INPUT] 1    0    [1    /1   ]  0.388                1
[INPUT] 2    0    [1    /1   ]  1.057                1
[INPUT] Li
[INPUT] 0    0    [9    /2   ]  5988              0.000133 -2.1e-05
                                898.9             0.001025 -0.000161
                                205.9             0.005272 -0.00082
                                59.24             0.020929 -0.003326
                                19.87             0.06634 -0.010519
                                7.406             0.165775 -0.028097
                                2.93              0.315038 -0.055936
                                1.189             0.393523 -0.099237
                                0.4798            0.19087 -0.112189
[INPUT] 0    0    [1    /1   ]  0.07509              1
[INPUT] 0    0    [1    /1   ]  0.02832              1
[INPUT] 1    0    [3    /1   ]  3.266             0.00863
                                0.6511            0.047538
                                0.1696            0.209772
[INPUT] 1    0    [1    /1   ]  0.05578              1
[INPUT] 1    0    [1    /1   ]  0.0205               1
[INPUT] 2    0    [1    /1   ]  0.1874               1
[INPUT] 2    0    [1    /1   ]  0.0801               1
[INPUT] 3    0    [1    /1   ]  0.1829               1
[INPUT] C
[INPUT] 0    0    [8    /2   ]  8236              0.000531 -0.000113
                                1235              0.004108 -0.000878
                                280.8             0.021087 -0.00454
                                79.27             0.081853 -0.018133
                                25.59             0.234817 -0.05576
                                8.997             0.434401 -0.126895
                                3.319             0.346129 -0.170352
                                0.3643            -0.008983 0.598684
[INPUT] 0    0    [1    /1   ]  0.9059               1
[INPUT] 0    0    [1    /1   ]  0.1285               1
[INPUT] 1    0    [3    /1   ]  18.71             0.014031
                                4.133             0.086866
                                1.2               0.290216
[INPUT] 1    0    [1    /1   ]  0.3827               1
[INPUT] 1    0    [1    /1   ]  0.1209               1
[INPUT] 2    0    [1    /1   ]  1.097                1
[INPUT] 2    0    [1    /1   ]  0.318                1
[INPUT] 3    0    [1    /1   ]  0.761                1
[INPUT] O
[INPUT] 0    0    [8    /2   ]  15330             0.000508 -0.000115
                                2299              0.003929 -0.000895
                                522.4             0.020243 -0.004636
                                147.3             0.079181 -0.018724
                                47.55             0.230687 -0.058463
                                16.76             0.433118 -0.136463
                                6.207             0.35026 -0.17574
                                0.6882            -0.008154 0.603418
[INPUT] 0    0    [1    /1   ]  1.752                1
[INPUT] 0    0    [1    /1   ]  0.2384               1
[INPUT] 1    0    [3    /1   ]  34.46             0.015928
                                7.749             0.09974
                                2.28              0.310492
[INPUT] 1    0    [1    /1   ]  0.7156               1
[INPUT] 1    0    [1    /1   ]  0.214                1
[INPUT] 2    0    [1    /1   ]  2.314                1
[INPUT] 2    0    [1    /1   ]  0.645                1
[INPUT] 3    0    [1    /1   ]  1.428                1

nuclear repulsion = 692.1955355805
number of shells = 258
number of NR pGTOs = 1176
number of NR cGTOs = 836
basis = ccpvtz
ecp = {}
bas 0, expnt(s) = [8.236e+03 1.235e+03 2.808e+02 7.927e+01 2.559e+01 8.997e+00 3.319e+00
 3.643e-01]
bas 1, expnt(s) = [0.9059]
bas 2, expnt(s) = [0.1285]
bas 3, expnt(s) = [18.71   4.133  1.2  ]
bas 4, expnt(s) = [0.3827]
bas 5, expnt(s) = [0.1209]
bas 6, expnt(s) = [1.097]
bas 7, expnt(s) = [0.318]
bas 8, expnt(s) = [0.761]
bas 9, expnt(s) = [1.533e+04 2.299e+03 5.224e+02 1.473e+02 4.755e+01 1.676e+01 6.207e+00
 6.882e-01]
bas 10, expnt(s) = [1.752]
bas 11, expnt(s) = [0.2384]
bas 12, expnt(s) = [34.46   7.749  2.28 ]
bas 13, expnt(s) = [0.7156]
bas 14, expnt(s) = [0.214]
bas 15, expnt(s) = [2.314]
bas 16, expnt(s) = [0.645]
bas 17, expnt(s) = [1.428]
bas 18, expnt(s) = [8.236e+03 1.235e+03 2.808e+02 7.927e+01 2.559e+01 8.997e+00 3.319e+00
 3.643e-01]
bas 19, expnt(s) = [0.9059]
bas 20, expnt(s) = [0.1285]
bas 21, expnt(s) = [18.71   4.133  1.2  ]
bas 22, expnt(s) = [0.3827]
bas 23, expnt(s) = [0.1209]
bas 24, expnt(s) = [1.097]
bas 25, expnt(s) = [0.318]
bas 26, expnt(s) = [0.761]
bas 27, expnt(s) = [1.533e+04 2.299e+03 5.224e+02 1.473e+02 4.755e+01 1.676e+01 6.207e+00
 6.882e-01]
bas 28, expnt(s) = [1.752]
bas 29, expnt(s) = [0.2384]
bas 30, expnt(s) = [34.46   7.749  2.28 ]
bas 31, expnt(s) = [0.7156]
bas 32, expnt(s) = [0.214]
bas 33, expnt(s) = [2.314]
bas 34, expnt(s) = [0.645]
bas 35, expnt(s) = [1.428]
bas 36, expnt(s) = [8.236e+03 1.235e+03 2.808e+02 7.927e+01 2.559e+01 8.997e+00 3.319e+00
 3.643e-01]
bas 37, expnt(s) = [0.9059]
bas 38, expnt(s) = [0.1285]
bas 39, expnt(s) = [18.71   4.133  1.2  ]
bas 40, expnt(s) = [0.3827]
bas 41, expnt(s) = [0.1209]
bas 42, expnt(s) = [1.097]
bas 43, expnt(s) = [0.318]
bas 44, expnt(s) = [0.761]
bas 45, expnt(s) = [1.533e+04 2.299e+03 5.224e+02 1.473e+02 4.755e+01 1.676e+01 6.207e+00
 6.882e-01]
bas 46, expnt(s) = [1.752]
bas 47, expnt(s) = [0.2384]
bas 48, expnt(s) = [34.46   7.749  2.28 ]
bas 49, expnt(s) = [0.7156]
bas 50, expnt(s) = [0.214]
bas 51, expnt(s) = [2.314]
bas 52, expnt(s) = [0.645]
bas 53, expnt(s) = [1.428]
bas 54, expnt(s) = [33.87   5.095  1.159]
bas 55, expnt(s) = [0.3258]
bas 56, expnt(s) = [0.1027]
bas 57, expnt(s) = [1.407]
bas 58, expnt(s) = [0.388]
bas 59, expnt(s) = [1.057]
bas 60, expnt(s) = [33.87   5.095  1.159]
bas 61, expnt(s) = [0.3258]
bas 62, expnt(s) = [0.1027]
bas 63, expnt(s) = [1.407]
bas 64, expnt(s) = [0.388]
bas 65, expnt(s) = [1.057]
bas 66, expnt(s) = [33.87   5.095  1.159]
bas 67, expnt(s) = [0.3258]
bas 68, expnt(s) = [0.1027]
bas 69, expnt(s) = [1.407]
bas 70, expnt(s) = [0.388]
bas 71, expnt(s) = [1.057]
bas 72, expnt(s) = [33.87   5.095  1.159]
bas 73, expnt(s) = [0.3258]
bas 74, expnt(s) = [0.1027]
bas 75, expnt(s) = [1.407]
bas 76, expnt(s) = [0.388]
bas 77, expnt(s) = [1.057]
bas 78, expnt(s) = [5.988e+03 8.989e+02 2.059e+02 5.924e+01 1.987e+01 7.406e+00 2.930e+00
 1.189e+00 4.798e-01]
bas 79, expnt(s) = [0.07509]
bas 80, expnt(s) = [0.02832]
bas 81, expnt(s) = [3.266  0.6511 0.1696]
bas 82, expnt(s) = [0.05578]
bas 83, expnt(s) = [0.0205]
bas 84, expnt(s) = [0.1874]
bas 85, expnt(s) = [0.0801]
bas 86, expnt(s) = [0.1829]
bas 87, expnt(s) = [5.988e+03 8.989e+02 2.059e+02 5.924e+01 1.987e+01 7.406e+00 2.930e+00
 1.189e+00 4.798e-01]
bas 88, expnt(s) = [0.07509]
bas 89, expnt(s) = [0.02832]
bas 90, expnt(s) = [3.266  0.6511 0.1696]
bas 91, expnt(s) = [0.05578]
bas 92, expnt(s) = [0.0205]
bas 93, expnt(s) = [0.1874]
bas 94, expnt(s) = [0.0801]
bas 95, expnt(s) = [0.1829]
bas 96, expnt(s) = [5.988e+03 8.989e+02 2.059e+02 5.924e+01 1.987e+01 7.406e+00 2.930e+00
 1.189e+00 4.798e-01]
bas 97, expnt(s) = [0.07509]
bas 98, expnt(s) = [0.02832]
bas 99, expnt(s) = [3.266  0.6511 0.1696]
bas 100, expnt(s) = [0.05578]
bas 101, expnt(s) = [0.0205]
bas 102, expnt(s) = [0.1874]
bas 103, expnt(s) = [0.0801]
bas 104, expnt(s) = [0.1829]
bas 105, expnt(s) = [5.988e+03 8.989e+02 2.059e+02 5.924e+01 1.987e+01 7.406e+00 2.930e+00
 1.189e+00 4.798e-01]
bas 106, expnt(s) = [0.07509]
bas 107, expnt(s) = [0.02832]
bas 108, expnt(s) = [3.266  0.6511 0.1696]
bas 109, expnt(s) = [0.05578]
bas 110, expnt(s) = [0.0205]
bas 111, expnt(s) = [0.1874]
bas 112, expnt(s) = [0.0801]
bas 113, expnt(s) = [0.1829]
bas 114, expnt(s) = [5.988e+03 8.989e+02 2.059e+02 5.924e+01 1.987e+01 7.406e+00 2.930e+00
 1.189e+00 4.798e-01]
bas 115, expnt(s) = [0.07509]
bas 116, expnt(s) = [0.02832]
bas 117, expnt(s) = [3.266  0.6511 0.1696]
bas 118, expnt(s) = [0.05578]
bas 119, expnt(s) = [0.0205]
bas 120, expnt(s) = [0.1874]
bas 121, expnt(s) = [0.0801]
bas 122, expnt(s) = [0.1829]
bas 123, expnt(s) = [5.988e+03 8.989e+02 2.059e+02 5.924e+01 1.987e+01 7.406e+00 2.930e+00
 1.189e+00 4.798e-01]
bas 124, expnt(s) = [0.07509]
bas 125, expnt(s) = [0.02832]
bas 126, expnt(s) = [3.266  0.6511 0.1696]
bas 127, expnt(s) = [0.05578]
bas 128, expnt(s) = [0.0205]
bas 129, expnt(s) = [0.1874]
bas 130, expnt(s) = [0.0801]
bas 131, expnt(s) = [0.1829]
bas 132, expnt(s) = [5.988e+03 8.989e+02 2.059e+02 5.924e+01 1.987e+01 7.406e+00 2.930e+00
 1.189e+00 4.798e-01]
bas 133, expnt(s) = [0.07509]
bas 134, expnt(s) = [0.02832]
bas 135, expnt(s) = [3.266  0.6511 0.1696]
bas 136, expnt(s) = [0.05578]
bas 137, expnt(s) = [0.0205]
bas 138, expnt(s) = [0.1874]
bas 139, expnt(s) = [0.0801]
bas 140, expnt(s) = [0.1829]
bas 141, expnt(s) = [5.988e+03 8.989e+02 2.059e+02 5.924e+01 1.987e+01 7.406e+00 2.930e+00
 1.189e+00 4.798e-01]
bas 142, expnt(s) = [0.07509]
bas 143, expnt(s) = [0.02832]
bas 144, expnt(s) = [3.266  0.6511 0.1696]
bas 145, expnt(s) = [0.05578]
bas 146, expnt(s) = [0.0205]
bas 147, expnt(s) = [0.1874]
bas 148, expnt(s) = [0.0801]
bas 149, expnt(s) = [0.1829]
bas 150, expnt(s) = [5.988e+03 8.989e+02 2.059e+02 5.924e+01 1.987e+01 7.406e+00 2.930e+00
 1.189e+00 4.798e-01]
bas 151, expnt(s) = [0.07509]
bas 152, expnt(s) = [0.02832]
bas 153, expnt(s) = [3.266  0.6511 0.1696]
bas 154, expnt(s) = [0.05578]
bas 155, expnt(s) = [0.0205]
bas 156, expnt(s) = [0.1874]
bas 157, expnt(s) = [0.0801]
bas 158, expnt(s) = [0.1829]
bas 159, expnt(s) = [5.988e+03 8.989e+02 2.059e+02 5.924e+01 1.987e+01 7.406e+00 2.930e+00
 1.189e+00 4.798e-01]
bas 160, expnt(s) = [0.07509]
bas 161, expnt(s) = [0.02832]
bas 162, expnt(s) = [3.266  0.6511 0.1696]
bas 163, expnt(s) = [0.05578]
bas 164, expnt(s) = [0.0205]
bas 165, expnt(s) = [0.1874]
bas 166, expnt(s) = [0.0801]
bas 167, expnt(s) = [0.1829]
bas 168, expnt(s) = [5.988e+03 8.989e+02 2.059e+02 5.924e+01 1.987e+01 7.406e+00 2.930e+00
 1.189e+00 4.798e-01]
bas 169, expnt(s) = [0.07509]
bas 170, expnt(s) = [0.02832]
bas 171, expnt(s) = [3.266  0.6511 0.1696]
bas 172, expnt(s) = [0.05578]
bas 173, expnt(s) = [0.0205]
bas 174, expnt(s) = [0.1874]
bas 175, expnt(s) = [0.0801]
bas 176, expnt(s) = [0.1829]
bas 177, expnt(s) = [5.988e+03 8.989e+02 2.059e+02 5.924e+01 1.987e+01 7.406e+00 2.930e+00
 1.189e+00 4.798e-01]
bas 178, expnt(s) = [0.07509]
bas 179, expnt(s) = [0.02832]
bas 180, expnt(s) = [3.266  0.6511 0.1696]
bas 181, expnt(s) = [0.05578]
bas 182, expnt(s) = [0.0205]
bas 183, expnt(s) = [0.1874]
bas 184, expnt(s) = [0.0801]
bas 185, expnt(s) = [0.1829]
bas 186, expnt(s) = [5.988e+03 8.989e+02 2.059e+02 5.924e+01 1.987e+01 7.406e+00 2.930e+00
 1.189e+00 4.798e-01]
bas 187, expnt(s) = [0.07509]
bas 188, expnt(s) = [0.02832]
bas 189, expnt(s) = [3.266  0.6511 0.1696]
bas 190, expnt(s) = [0.05578]
bas 191, expnt(s) = [0.0205]
bas 192, expnt(s) = [0.1874]
bas 193, expnt(s) = [0.0801]
bas 194, expnt(s) = [0.1829]
bas 195, expnt(s) = [5.988e+03 8.989e+02 2.059e+02 5.924e+01 1.987e+01 7.406e+00 2.930e+00
 1.189e+00 4.798e-01]
bas 196, expnt(s) = [0.07509]
bas 197, expnt(s) = [0.02832]
bas 198, expnt(s) = [3.266  0.6511 0.1696]
bas 199, expnt(s) = [0.05578]
bas 200, expnt(s) = [0.0205]
bas 201, expnt(s) = [0.1874]
bas 202, expnt(s) = [0.0801]
bas 203, expnt(s) = [0.1829]
bas 204, expnt(s) = [5.988e+03 8.989e+02 2.059e+02 5.924e+01 1.987e+01 7.406e+00 2.930e+00
 1.189e+00 4.798e-01]
bas 205, expnt(s) = [0.07509]
bas 206, expnt(s) = [0.02832]
bas 207, expnt(s) = [3.266  0.6511 0.1696]
bas 208, expnt(s) = [0.05578]
bas 209, expnt(s) = [0.0205]
bas 210, expnt(s) = [0.1874]
bas 211, expnt(s) = [0.0801]
bas 212, expnt(s) = [0.1829]
bas 213, expnt(s) = [5.988e+03 8.989e+02 2.059e+02 5.924e+01 1.987e+01 7.406e+00 2.930e+00
 1.189e+00 4.798e-01]
bas 214, expnt(s) = [0.07509]
bas 215, expnt(s) = [0.02832]
bas 216, expnt(s) = [3.266  0.6511 0.1696]
bas 217, expnt(s) = [0.05578]
bas 218, expnt(s) = [0.0205]
bas 219, expnt(s) = [0.1874]
bas 220, expnt(s) = [0.0801]
bas 221, expnt(s) = [0.1829]
bas 222, expnt(s) = [5.988e+03 8.989e+02 2.059e+02 5.924e+01 1.987e+01 7.406e+00 2.930e+00
 1.189e+00 4.798e-01]
bas 223, expnt(s) = [0.07509]
bas 224, expnt(s) = [0.02832]
bas 225, expnt(s) = [3.266  0.6511 0.1696]
bas 226, expnt(s) = [0.05578]
bas 227, expnt(s) = [0.0205]
bas 228, expnt(s) = [0.1874]
bas 229, expnt(s) = [0.0801]
bas 230, expnt(s) = [0.1829]
bas 231, expnt(s) = [5.988e+03 8.989e+02 2.059e+02 5.924e+01 1.987e+01 7.406e+00 2.930e+00
 1.189e+00 4.798e-01]
bas 232, expnt(s) = [0.07509]
bas 233, expnt(s) = [0.02832]
bas 234, expnt(s) = [3.266  0.6511 0.1696]
bas 235, expnt(s) = [0.05578]
bas 236, expnt(s) = [0.0205]
bas 237, expnt(s) = [0.1874]
bas 238, expnt(s) = [0.0801]
bas 239, expnt(s) = [0.1829]
bas 240, expnt(s) = [5.988e+03 8.989e+02 2.059e+02 5.924e+01 1.987e+01 7.406e+00 2.930e+00
 1.189e+00 4.798e-01]
bas 241, expnt(s) = [0.07509]
bas 242, expnt(s) = [0.02832]
bas 243, expnt(s) = [3.266  0.6511 0.1696]
bas 244, expnt(s) = [0.05578]
bas 245, expnt(s) = [0.0205]
bas 246, expnt(s) = [0.1874]
bas 247, expnt(s) = [0.0801]
bas 248, expnt(s) = [0.1829]
bas 249, expnt(s) = [5.988e+03 8.989e+02 2.059e+02 5.924e+01 1.987e+01 7.406e+00 2.930e+00
 1.189e+00 4.798e-01]
bas 250, expnt(s) = [0.07509]
bas 251, expnt(s) = [0.02832]
bas 252, expnt(s) = [3.266  0.6511 0.1696]
bas 253, expnt(s) = [0.05578]
bas 254, expnt(s) = [0.0205]
bas 255, expnt(s) = [0.1874]
bas 256, expnt(s) = [0.0801]
bas 257, expnt(s) = [0.1829]
CPU time:         0.67
arg.atm = [[  6  20   1  23   0   0]
 [  8  24   1  27   0   0]
 [  6  28   1  31   0   0]
 [  8  32   1  35   0   0]
 [  6  36   1  39   0   0]
 [  8  40   1  43   0   0]
 [  1  44   1  47   0   0]
 [  1  48   1  51   0   0]
 [  1  52   1  55   0   0]
 [  1  56   1  59   0   0]
 [  3  60   1  63   0   0]
 [  3  64   1  67   0   0]
 [  3  68   1  71   0   0]
 [  3  72   1  75   0   0]
 [  3  76   1  79   0   0]
 [  3  80   1  83   0   0]
 [  3  84   1  87   0   0]
 [  3  88   1  91   0   0]
 [  3  92   1  95   0   0]
 [  3  96   1  99   0   0]
 [  3 100   1 103   0   0]
 [  3 104   1 107   0   0]
 [  3 108   1 111   0   0]
 [  3 112   1 115   0   0]
 [  3 116   1 119   0   0]
 [  3 120   1 123   0   0]
 [  3 124   1 127   0   0]
 [  3 128   1 131   0   0]
 [  3 132   1 135   0   0]
 [  3 136   1 139   0   0]]
arg.bas = [[  0   0   8 ... 203 211   0]
 [  0   0   1 ... 227 228   0]
 [  0   0   1 ... 229 230   0]
 ...
 [ 29   2   1 ... 197 198   0]
 [ 29   2   1 ... 199 200   0]
 [ 29   3   1 ... 201 202   0]]
arg.env = [ 0.00000000e+00  0.00000000e+00  0.00000000e+00  0.00000000e+00
  0.00000000e+00  0.00000000e+00  0.00000000e+00  0.00000000e+00
  0.00000000e+00  0.00000000e+00  0.00000000e+00  0.00000000e+00
  0.00000000e+00  0.00000000e+00  0.00000000e+00  0.00000000e+00
  0.00000000e+00  0.00000000e+00  0.00000000e+00  0.00000000e+00
  9.24019383e+00  8.69207877e+00  1.93853964e+01  0.00000000e+00
  9.20328748e+00  8.02338028e+00  1.69179054e+01  0.00000000e+00
  1.00360331e+01  9.81468947e+00  1.55586821e+01  0.00000000e+00
  1.08957451e+01  1.15484943e+01  1.69739736e+01  0.00000000e+00
  1.09115621e+01  1.07758609e+01  1.94118904e+01  0.00000000e+00
  1.00150193e+01  9.85709492e+00  1.34415463e+01  0.00000000e+00
  9.84993286e+00  7.17778453e+00  2.04358385e+01  0.00000000e+00
  7.47029524e+00  9.20530949e+00  1.99330201e+01  0.00000000e+00
  1.03268241e+01  1.22452552e+01  2.05375057e+01  0.00000000e+00
  1.26928935e+01  1.02404070e+01  1.98977389e+01  0.00000000e+00
  9.94742383e+00  9.94742383e+00  9.94742383e+00  0.00000000e+00
  9.94742383e+00  3.31580794e+00  9.94742383e+00  0.00000000e+00
  1.65790397e+01  9.94742383e+00  9.94742383e+00  0.00000000e+00
  3.31580794e+00  9.94742383e+00  9.94742383e+00  0.00000000e+00
  9.94742383e+00  1.65790397e+01  9.94742383e+00  0.00000000e+00
  1.32632318e+01  6.63161589e+00  6.63161589e+00  0.00000000e+00
  6.63161589e+00  6.63161589e+00  6.63161589e+00  0.00000000e+00
  1.32632318e+01  1.32632318e+01  6.63161589e+00  0.00000000e+00
  6.63161589e+00  1.32632318e+01  6.63161589e+00  0.00000000e+00
  1.65790397e+01  3.31580794e+00  9.94742383e+00  0.00000000e+00
  3.31580794e+00  3.31580794e+00  9.94742383e+00  0.00000000e+00
  1.65790397e+01  1.65790397e+01  9.94742383e+00  0.00000000e+00
  3.31580794e+00  1.65790397e+01  9.94742383e+00  0.00000000e+00
  9.94742383e+00  9.94742383e+00  3.31580794e+00  0.00000000e+00
  9.94742383e+00  3.31580794e+00  3.31580794e+00  0.00000000e+00
  1.65790397e+01  9.94742383e+00  3.31580794e+00  0.00000000e+00
  3.31580794e+00  9.94742383e+00  3.31580794e+00  0.00000000e+00
  9.94742383e+00  1.65790397e+01  3.31580794e+00  0.00000000e+00
  1.32632318e+01  0.00000000e+00  6.63161589e+00  0.00000000e+00
  6.63161589e+00  0.00000000e+00  6.63161589e+00  0.00000000e+00
  3.38700000e+01  5.09500000e+00  1.15900000e+00  9.04334519e-01
  1.63100455e+00  2.40491525e+00  3.25800000e-01  1.08950276e+00
  1.02700000e-01  4.58345379e-01  1.40700000e+00  4.47045795e+00
  3.88000000e-01  8.93354953e-01  1.05700000e+00  2.87515071e+00
  5.98800000e+03  8.98900000e+02  2.05900000e+02  5.92400000e+01
  1.98700000e+01  7.40600000e+00  2.93000000e+00  1.18900000e+00
  4.79800000e-01  2.29069316e-01  4.25756548e-01  7.25056076e-01
  1.13074246e+00  1.57971158e+00  1.88304523e+00  1.78512072e+00
  1.13373211e+00  2.78411257e-01 -1.33552750e-01 -2.46934407e-01
 -4.16416863e-01 -6.63522613e-01 -9.24900580e-01 -1.17847379e+00
 -1.17034612e+00 -1.05567981e+00 -6.04251387e-01  7.50900000e-02
  3.62411193e-01  2.83200000e-02  1.74415453e-01  3.26600000e+00
  6.51100000e-01  1.69600000e-01  4.55280795e-01  3.34078737e-01
  2.74333054e-01  5.57800000e-02  7.90828897e-02  2.05000000e-02
  2.26295917e-02  1.87400000e-01  1.39275961e-01  8.01000000e-02
  3.14692425e-02  1.82900000e-01  4.31510332e-02  8.23600000e+03
  1.23500000e+03  2.80800000e+02  7.92700000e+01  2.55900000e+01
  8.99700000e+00  3.31900000e+00  3.64300000e-01  1.18480296e+00
  2.20874210e+00  3.73316324e+00  5.61216719e+00  6.89519583e+00
  5.82409515e+00  2.19663441e+00 -1.08712663e-02 -4.28969670e-01
 -8.03166571e-01 -1.36745981e+00 -2.11525239e+00 -2.78571299e+00
 -2.89453423e+00 -1.83934657e+00  1.23268730e+00  9.05900000e-01
  2.34598494e+00  1.28500000e-01  5.42241022e-01  1.87100000e+01
  4.13300000e+00  1.20000000e+00  4.47572721e+00  4.19627876e+00
  2.98800046e+00  3.82700000e-01  8.78127282e-01  1.20900000e-01
  2.07977938e-01  1.09700000e+00  3.06825171e+00  3.18000000e-01
  3.51379844e-01  7.61000000e-01  1.06690522e+00  1.53300000e+04
  2.29900000e+03  5.22400000e+02  1.47300000e+02  4.75500000e+01
  1.67600000e+01  6.20700000e+00  6.88200000e-01  1.81067529e+00
  3.37486577e+00  5.72265412e+00  8.66150357e+00  1.08070276e+01
  9.28179538e+00  3.56346173e+00 -1.59395830e-02 -6.86527364e-01
 -1.28759909e+00 -2.19507417e+00 -3.43047366e+00 -4.58719692e+00
 -4.89805685e+00 -2.99457591e+00  1.97563931e+00  1.75200000e+00
  3.84738459e+00  2.38400000e-01  8.61975084e-01  3.44600000e+01
  7.74900000e+00  2.28000000e+00  1.00262994e+01  9.72213774e+00
  6.55849668e+00  7.15600000e-01  1.92009319e+00  2.14000000e-01
  4.24621137e-01  2.31400000e+00  1.13283134e+01  6.45000000e-01
  1.21132000e+00  1.42800000e+00  4.39692268e+00]
ecpbas  = []


******** <class 'pyscf.scf.hf.RHF'> ********
method = RHF
initial guess = minao
damping factor = 0
level_shift factor = 0
DIIS = <class 'pyscf.scf.diis.CDIIS'>
diis_start_cycle = 1
diis_space = 8
SCF conv_tol = 1e-09
SCF conv_tol_grad = None
SCF max_cycles = 50
direct_scf = True
direct_scf_tol = 1e-13
chkfile to save SCF result = /burg/ccce/users/eav2136/projects/batteries/01_mp2/tmp/tmpx67vu6wd
max_memory 700000 MB (current use 94 MB)
Set gradient conv threshold to 3.16228e-05
Nelec from initial guess = 105.99820762815533
E1 = -2036.7729546591331  E_coul = 851.0592587577001
init E= -493.518160320933
cond(S) = 1314607.9853208906
    CPU time for initialize scf   2445.12 sec, wall time     77.26 sec
  HOMO = -0.0873415827706051  LUMO = -0.0854593648413462
  mo_energy =
[-2.08436179e+01 -2.07936135e+01 -2.07926200e+01 -1.13785936e+01
 -1.13528357e+01 -1.13477153e+01 -2.52160177e+00 -2.51538203e+00
 -2.51490051e+00 -2.51318317e+00 -2.51295199e+00 -2.50555368e+00
 -2.50391351e+00 -2.49995238e+00 -2.49537529e+00 -2.49462324e+00
 -2.49461772e+00 -2.49405762e+00 -2.49368889e+00 -2.49078462e+00
 -2.49058701e+00 -2.49039830e+00 -2.49014664e+00 -2.49011808e+00
 -2.48559758e+00 -2.48550359e+00 -2.16878953e+00 -1.79613728e+00
 -1.65780388e+00 -1.33707086e+00 -1.05210623e+00 -9.01315811e-01
 -8.03089649e-01 -7.85346475e-01 -6.88630641e-01 -6.63565973e-01
 -6.21388520e-01 -5.70044382e-01 -5.42156693e-01 -5.00315908e-01
 -4.94077923e-01 -4.37925301e-01 -4.04056885e-01 -3.64496226e-01
 -3.24596826e-01 -3.20787489e-01 -2.19435709e-01 -1.98858833e-01
 -1.93395589e-01 -1.52400933e-01 -1.28891554e-01 -1.24535677e-01
 -8.73415828e-02 -8.54593648e-02 -6.79083193e-02 -4.58760403e-02
 -4.30208255e-02 -3.38712937e-02 -2.73088830e-02 -2.08834290e-02
 -1.35111615e-02 -9.83063946e-03  1.08245081e-03  3.52222736e-03
  5.38177926e-03  9.93605606e-03  1.01006926e-02  1.19646130e-02
  1.59161665e-02  2.26164173e-02  2.27648497e-02  2.72083164e-02
  2.96061817e-02  3.57932827e-02  4.13062819e-02  4.20755862e-02
  4.48420424e-02  4.76322953e-02  4.84504908e-02  5.03241512e-02
  5.22223492e-02  5.28541781e-02  5.34837156e-02  5.50396323e-02
  5.55759385e-02  5.93013113e-02  5.99790750e-02  6.00028929e-02
  6.16442382e-02  6.39489360e-02  6.59088499e-02  6.74677297e-02
  6.80333007e-02  6.92562982e-02  6.97812619e-02  7.24721157e-02
  7.40242109e-02  7.41593021e-02  7.61493385e-02  7.86795936e-02
  7.96434434e-02  7.99337529e-02  8.38239128e-02  8.41865755e-02
  8.56800234e-02  8.87462635e-02  9.06781987e-02  9.20633171e-02
  9.60512651e-02  9.65558735e-02  9.75438103e-02  1.00809951e-01
  1.03333417e-01  1.04764368e-01  1.05456658e-01  1.06391350e-01
  1.08235023e-01  1.09010023e-01  1.12010692e-01  1.12385530e-01
  1.13651338e-01  1.15621361e-01  1.17000982e-01  1.18171721e-01
  1.21609998e-01  1.22057224e-01  1.24078991e-01  1.25222095e-01
  1.26514640e-01  1.29362186e-01  1.29725575e-01  1.30997701e-01
  1.34098441e-01  1.34679246e-01  1.36292719e-01  1.37233080e-01
  1.39856808e-01  1.40053842e-01  1.43705851e-01  1.43878825e-01
  1.47754564e-01  1.51171985e-01  1.51927854e-01  1.52260238e-01
  1.54066495e-01  1.55788887e-01  1.56150380e-01  1.59753451e-01
  1.62436225e-01  1.63108904e-01  1.63887075e-01  1.68082214e-01
  1.74418139e-01  1.77174907e-01  1.78660949e-01  1.78853261e-01
  1.81224726e-01  1.84283650e-01  1.86919578e-01  1.88995224e-01
  1.90175790e-01  1.91902566e-01  1.92817046e-01  1.94389882e-01
  1.95607710e-01  1.95777910e-01  1.98611645e-01  2.01999885e-01
  2.04085014e-01  2.06201364e-01  2.07791885e-01  2.09114479e-01
  2.10964690e-01  2.11504688e-01  2.13945585e-01  2.14822738e-01
  2.17730054e-01  2.18827870e-01  2.19530168e-01  2.21547996e-01
  2.22871610e-01  2.25021461e-01  2.26090992e-01  2.28753288e-01
  2.30519174e-01  2.32260876e-01  2.35386478e-01  2.37018204e-01
  2.41160926e-01  2.42715515e-01  2.43394114e-01  2.46393914e-01
  2.51021106e-01  2.55357025e-01  2.59352738e-01  2.62321841e-01
  2.62576123e-01  2.68958603e-01  2.69560563e-01  2.71379086e-01
  2.76201819e-01  2.78645948e-01  2.82836287e-01  2.85305353e-01
  2.86768250e-01  2.88304379e-01  2.90041717e-01  2.92182230e-01
  2.95671524e-01  2.98311781e-01  2.99511734e-01  3.01789227e-01
  3.03087504e-01  3.05573304e-01  3.05900504e-01  3.08570649e-01
  3.10289037e-01  3.11789042e-01  3.13300161e-01  3.16419959e-01
  3.21052001e-01  3.23838762e-01  3.28212920e-01  3.28481275e-01
  3.30746258e-01  3.33818335e-01  3.38608765e-01  3.39168085e-01
  3.43687105e-01  3.44378075e-01  3.45830567e-01  3.50289848e-01
  3.52790761e-01  3.54407517e-01  3.55911900e-01  3.60833494e-01
  3.61843809e-01  3.64142864e-01  3.64909636e-01  3.69679245e-01
  3.70372373e-01  3.76127553e-01  3.77171336e-01  3.79646652e-01
  3.80628128e-01  3.82330153e-01  3.87504156e-01  3.90486664e-01
  3.93664495e-01  3.95741635e-01  3.98015650e-01  3.98807605e-01
  3.99377301e-01  4.00730197e-01  4.02668472e-01  4.04507816e-01
  4.04996510e-01  4.08788564e-01  4.11541794e-01  4.11975658e-01
  4.13604724e-01  4.16545915e-01  4.19091744e-01  4.20009467e-01
  4.21701869e-01  4.23613679e-01  4.25574802e-01  4.28944077e-01
  4.31460325e-01  4.33577928e-01  4.36438037e-01  4.37893600e-01
  4.41028955e-01  4.42132389e-01  4.44691234e-01  4.45071552e-01
  4.47084124e-01  4.48367562e-01  4.50130097e-01  4.52757476e-01
  4.55004668e-01  4.55755524e-01  4.58672183e-01  4.62541546e-01
  4.63457014e-01  4.64341334e-01  4.65988038e-01  4.67654825e-01
  4.68940096e-01  4.74232340e-01  4.76301587e-01  4.79189173e-01
  4.83188191e-01  4.83872027e-01  4.85712036e-01  4.88791190e-01
  4.90212422e-01  4.91857946e-01  4.93082092e-01  4.94310856e-01
  4.98184738e-01  4.99163280e-01  5.01859967e-01  5.02544511e-01
  5.05104481e-01  5.07306933e-01  5.08623910e-01  5.09013934e-01
  5.14359906e-01  5.18727958e-01  5.19246609e-01  5.20303100e-01
  5.21630031e-01  5.23940334e-01  5.25592561e-01  5.27889876e-01
  5.31060852e-01  5.31836203e-01  5.34228333e-01  5.41824396e-01
  5.43953922e-01  5.47485685e-01  5.49349732e-01  5.52136937e-01
  5.54672033e-01  5.57151448e-01  5.57444111e-01  5.62447400e-01
  5.64096026e-01  5.67784588e-01  5.69991084e-01  5.71275736e-01
  5.75753856e-01  5.80631392e-01  5.84487253e-01  5.85818948e-01
  5.92558919e-01  5.95045391e-01  5.98499280e-01  6.00744815e-01
  6.01959767e-01  6.05476933e-01  6.07428696e-01  6.11333964e-01
  6.15756044e-01  6.17488346e-01  6.21948367e-01  6.27428641e-01
  6.29011975e-01  6.33006317e-01  6.34737259e-01  6.36341547e-01
  6.40214744e-01  6.42781877e-01  6.44461149e-01  6.47563857e-01
  6.49642114e-01  6.50309643e-01  6.52024751e-01  6.55076501e-01
  6.56761446e-01  6.59685285e-01  6.62955046e-01  6.66043473e-01
  6.67423851e-01  6.68985701e-01  6.72663266e-01  6.74501165e-01
  6.74881478e-01  6.78787334e-01  6.80160166e-01  6.83278618e-01
  6.83944039e-01  6.88681659e-01  6.90779137e-01  6.92598912e-01
  6.92831980e-01  6.94747563e-01  6.98052396e-01  7.00845626e-01
  7.02101988e-01  7.06266799e-01  7.06801546e-01  7.11590930e-01
  7.13029652e-01  7.14083091e-01  7.17905002e-01  7.23143916e-01
  7.24867487e-01  7.29889392e-01  7.30528984e-01  7.35145695e-01
  7.39429647e-01  7.41469499e-01  7.45242294e-01  7.47513114e-01
  7.49433771e-01  7.50389570e-01  7.51880394e-01  7.53896483e-01
  7.57866971e-01  7.58368170e-01  7.60987354e-01  7.66375956e-01
  7.70500504e-01  7.70962625e-01  7.73461066e-01  7.78048485e-01
  7.82560378e-01  7.83984775e-01  7.87730797e-01  7.87930829e-01
  7.89800441e-01  7.94390726e-01  7.96287072e-01  7.97325579e-01
  7.99972105e-01  8.01017725e-01  8.02566852e-01  8.05897864e-01
  8.08146761e-01  8.11429775e-01  8.15841728e-01  8.17827023e-01
  8.18684672e-01  8.19612156e-01  8.24142379e-01  8.25403710e-01
  8.28098871e-01  8.29267107e-01  8.31680295e-01  8.32091076e-01
  8.36040613e-01  8.39626051e-01  8.40755682e-01  8.45174906e-01
  8.45947533e-01  8.47651572e-01  8.48191375e-01  8.49538163e-01
  8.54578477e-01  8.57299872e-01  8.60514608e-01  8.63969072e-01
  8.66694333e-01  8.67233935e-01  8.68883769e-01  8.70879517e-01
  8.74704641e-01  8.77476209e-01  8.78415074e-01  8.81270964e-01
  8.82728070e-01  8.85615014e-01  8.86192964e-01  8.90052343e-01
  8.91642476e-01  8.92878103e-01  8.95253113e-01  8.97639373e-01
  9.01052006e-01  9.02364500e-01  9.02850881e-01  9.06600859e-01
  9.08119005e-01  9.12522243e-01  9.13781127e-01  9.17377156e-01
  9.20657903e-01  9.24439761e-01  9.26289167e-01  9.29905900e-01
  9.30079373e-01  9.33894984e-01  9.37241276e-01  9.40843662e-01
  9.41407295e-01  9.43651724e-01  9.44200704e-01  9.50579628e-01
  9.52143369e-01  9.55114952e-01  9.57017506e-01  9.58593611e-01
  9.61087896e-01  9.65686061e-01  9.66265669e-01  9.68493292e-01
  9.70740237e-01  9.74224045e-01  9.75597367e-01  9.80570575e-01
  9.83621652e-01  9.84897416e-01  9.87335656e-01  9.90147172e-01
  9.92449508e-01  9.93671489e-01  9.94639224e-01  1.00105913e+00
  1.00667452e+00  1.00758516e+00  1.00978365e+00  1.01144104e+00
  1.01326058e+00  1.01878530e+00  1.01992103e+00  1.02313673e+00
  1.02333372e+00  1.02550733e+00  1.02884076e+00  1.02988852e+00
  1.03203976e+00  1.03662178e+00  1.03826265e+00  1.03928788e+00
  1.04275132e+00  1.04472855e+00  1.04640843e+00  1.04854997e+00
  1.05059966e+00  1.05227988e+00  1.05463367e+00  1.05536415e+00
  1.05934849e+00  1.06276011e+00  1.06901709e+00  1.06935450e+00
  1.07280167e+00  1.07433294e+00  1.07810225e+00  1.07958148e+00
  1.08149256e+00  1.08377607e+00  1.08923979e+00  1.09082386e+00
  1.09283440e+00  1.09818820e+00  1.10261456e+00  1.10418373e+00
  1.10875787e+00  1.10918617e+00  1.11530261e+00  1.11685065e+00
  1.11908903e+00  1.12244259e+00  1.12585903e+00  1.12622606e+00
  1.12733983e+00  1.13211815e+00  1.13300395e+00  1.13844725e+00
  1.14133908e+00  1.14812276e+00  1.15043584e+00  1.15309286e+00
  1.15575994e+00  1.16024734e+00  1.16284085e+00  1.16487344e+00
  1.16860721e+00  1.16950585e+00  1.17051231e+00  1.17779229e+00
  1.17948726e+00  1.18336113e+00  1.18408296e+00  1.18932196e+00
  1.19115150e+00  1.19554170e+00  1.19622964e+00  1.19839972e+00
  1.20383589e+00  1.20583449e+00  1.20847912e+00  1.21507426e+00
  1.21754622e+00  1.21900435e+00  1.22159644e+00  1.22654484e+00
  1.22985013e+00  1.23416200e+00  1.23586217e+00  1.23630799e+00
  1.23793507e+00  1.24167915e+00  1.24503415e+00  1.24815485e+00
  1.25314776e+00  1.25456095e+00  1.25646731e+00  1.25835568e+00
  1.26170281e+00  1.26382689e+00  1.26970947e+00  1.27408955e+00
  1.27822884e+00  1.27954300e+00  1.28220955e+00  1.28433479e+00
  1.28667878e+00  1.29265960e+00  1.29721877e+00  1.30356931e+00
  1.30735599e+00  1.30971864e+00  1.31113142e+00  1.31267986e+00
  1.31582418e+00  1.31744002e+00  1.32267245e+00  1.32526741e+00
  1.33611190e+00  1.33655499e+00  1.34045154e+00  1.34574745e+00
  1.34979263e+00  1.35265705e+00  1.35914272e+00  1.36180502e+00
  1.36309933e+00  1.36375730e+00  1.37352214e+00  1.37544198e+00
  1.37947995e+00  1.38158742e+00  1.38614341e+00  1.38720076e+00
  1.39059581e+00  1.39437898e+00  1.39829726e+00  1.41013943e+00
  1.41471060e+00  1.42298787e+00  1.42875124e+00  1.42988331e+00
  1.43287135e+00  1.44111463e+00  1.44327845e+00  1.45007179e+00
  1.45319040e+00  1.45364133e+00  1.46454978e+00  1.47152050e+00
  1.47906535e+00  1.48538420e+00  1.49634670e+00  1.51600377e+00
  1.51969189e+00  1.53121558e+00  1.53931810e+00  1.55093373e+00
  1.56175991e+00  1.57844379e+00  1.59794789e+00  1.59989731e+00
  1.60623875e+00  1.60900822e+00  1.61293280e+00  1.66299524e+00
  1.67284641e+00  1.69579909e+00  1.74786109e+00  1.81351259e+00
  1.82552319e+00  1.88069346e+00  1.88822612e+00  1.91923223e+00
  1.95654728e+00  2.00615248e+00  2.05900432e+00  2.06514651e+00
  2.14883232e+00  2.22177643e+00  2.27472485e+00  2.32697879e+00
  2.38814201e+00  2.41170858e+00  2.46248480e+00  2.47484710e+00
  2.50299719e+00  2.55876642e+00  2.62506925e+00  2.68904374e+00
  2.70854940e+00  2.71374195e+00  2.75978818e+00  2.81264645e+00
  2.85118636e+00  2.85565044e+00  2.86801158e+00  2.88592051e+00
  2.97255680e+00  3.01218428e+00  3.01689046e+00  3.06711319e+00
  3.11293609e+00  3.13173029e+00  3.14937486e+00  3.18354274e+00
  3.20157663e+00  3.24045978e+00  3.25087410e+00  3.29049131e+00
  3.29622641e+00  3.30644925e+00  3.32619696e+00  3.35082177e+00
  3.35538926e+00  3.35859574e+00  3.36140471e+00  3.38914680e+00
  3.40336533e+00  3.40800913e+00  3.41189019e+00  3.42665070e+00
  3.44378812e+00  3.46251205e+00  3.47329158e+00  3.48584669e+00
  3.49622994e+00  3.49928248e+00  3.52788165e+00  3.53204077e+00
  3.53706279e+00  3.55002841e+00  3.58148620e+00  3.61732106e+00
  3.64334810e+00  3.67821956e+00  3.68148527e+00  3.68796146e+00
  3.69366202e+00  3.75112032e+00  3.77123190e+00  3.79938141e+00
  3.82376739e+00  3.85427992e+00  3.87140324e+00  3.88826498e+00
  3.89580636e+00  3.90795740e+00  3.92774184e+00  3.95562568e+00
  3.96027712e+00  3.98510901e+00  4.03915634e+00  4.04449616e+00
  4.06917125e+00  4.07021122e+00  4.10043127e+00  4.15436740e+00
  4.24747382e+00  4.28322870e+00  4.29376160e+00  4.29650450e+00
  4.37634121e+00  4.38770299e+00  4.39585518e+00  4.43579952e+00
  4.43840274e+00  4.50592434e+00  4.53078747e+00  4.53671372e+00
  4.60422346e+00  4.64484872e+00  4.66251891e+00  4.67525154e+00
  4.70961418e+00  4.78679549e+00  4.82146801e+00  4.94015171e+00
  5.00333570e+00  5.03401162e+00  5.06086669e+00  5.12101499e+00
  5.13266134e+00  5.29453027e+00  5.31249690e+00  5.37605305e+00
  5.42897208e+00  5.43249538e+00  5.43434540e+00  5.47902921e+00
  5.51440760e+00  5.51738858e+00  5.57944223e+00  5.65440579e+00
  5.72279635e+00  5.74150885e+00  5.82384121e+00  5.83769224e+00
  5.94985541e+00  5.95488844e+00  6.02779627e+00  6.05647472e+00
  6.09812421e+00  6.11527594e+00  6.15072567e+00  6.16712317e+00
  6.25382379e+00  6.34840858e+00  6.41859359e+00  6.42363108e+00
  6.42682879e+00  6.53942630e+00  6.60216805e+00  6.64167670e+00
  6.69057244e+00  6.77415946e+00  6.82904115e+00  6.87380491e+00
  6.87642995e+00  6.95422417e+00  7.01784470e+00  7.11646955e+00
  7.15171827e+00  7.22464665e+00  7.26060228e+00  7.27509549e+00
  7.30601735e+00  7.36720682e+00  7.42610487e+00  7.45153074e+00
  7.63456421e+00  7.69190405e+00  7.82252145e+00  7.90476388e+00
  8.02670045e+00  8.37659000e+00  1.12006490e+01  1.30892591e+01
  1.33103558e+01  1.40770341e+01  1.58941215e+01  1.74968341e+01]
E1 = -2043.4628456268806  E_coul = 861.9993174980532
cycle= 1 E= -489.267992548328  delta_E= 4.25  |g|= 0.993  |ddm|= 5.01
    CPU time for cycle= 1    443.14 sec, wall time     14.02 sec
diis-norm(errvec)=4.01846
diis-c [-16.14801702   1.        ]
  HOMO = -0.0520229227773498  LUMO = -0.003024467891785
  mo_energy =
[-2.06102858e+01 -2.06085759e+01 -2.02592314e+01 -1.16835393e+01
 -1.14543452e+01 -1.14531935e+01 -2.46067992e+00 -2.46025803e+00
 -2.44604165e+00 -2.44327774e+00 -2.42679730e+00 -2.42474185e+00
 -2.42393473e+00 -2.41997298e+00 -2.40979512e+00 -2.40773481e+00
 -2.38588500e+00 -2.38043420e+00 -2.35918753e+00 -2.35538583e+00
 -2.28792449e+00 -2.28450375e+00 -2.28337007e+00 -2.28125127e+00
 -2.27470050e+00 -2.21983523e+00 -1.69749461e+00 -1.51356549e+00
 -1.43427093e+00 -1.20683444e+00 -1.04149702e+00 -9.37857271e-01
 -8.81761445e-01 -8.21259030e-01 -7.90303280e-01 -7.22718989e-01
 -7.10073458e-01 -6.39705316e-01 -6.22658555e-01 -6.00646940e-01
 -5.39935212e-01 -4.68534437e-01 -4.26357146e-01 -2.32596592e-01
 -1.99846600e-01 -1.95006481e-01 -1.49932013e-01 -1.38367988e-01
 -1.30116802e-01 -9.93615476e-02 -9.57604212e-02 -8.11174758e-02
 -5.20229228e-02 -3.02446789e-03  1.05970721e-02  1.32284850e-02
  1.50999496e-02  2.03877746e-02  2.26749327e-02  2.98691840e-02
  3.13830870e-02  3.17534619e-02  3.51054602e-02  3.89739628e-02
  4.06557053e-02  4.11593034e-02  4.45578545e-02  4.46261281e-02
  4.99847118e-02  5.18626259e-02  5.42328637e-02  5.48954104e-02
  5.71217267e-02  6.03238800e-02  6.34945690e-02  6.40043486e-02
  6.72346078e-02  6.83131448e-02  6.85298690e-02  7.08246469e-02
  7.23614725e-02  7.46676458e-02  7.76542658e-02  7.80187623e-02
  7.91919131e-02  7.98725544e-02  8.17016189e-02  8.63807081e-02
  8.72696442e-02  8.85964895e-02  8.96215177e-02  9.08534517e-02
  9.10836390e-02  9.24313382e-02  9.69165185e-02  9.96355468e-02
  1.00694448e-01  1.01024128e-01  1.02161409e-01  1.05840885e-01
  1.06342682e-01  1.07263027e-01  1.08184629e-01  1.09218162e-01
  1.11948115e-01  1.12796110e-01  1.13484287e-01  1.13720466e-01
  1.16785667e-01  1.18882938e-01  1.19068645e-01  1.21980098e-01
  1.25381328e-01  1.27541806e-01  1.30206052e-01  1.30758218e-01
  1.33703593e-01  1.34936198e-01  1.36531601e-01  1.37339107e-01
  1.39129574e-01  1.41021932e-01  1.43224474e-01  1.44689200e-01
  1.46291113e-01  1.50381703e-01  1.51995997e-01  1.52867679e-01
  1.57734564e-01  1.62041182e-01  1.65696429e-01  1.67768795e-01
  1.69222010e-01  1.73150839e-01  1.75034870e-01  1.76090648e-01
  1.78181525e-01  1.80830326e-01  1.82041074e-01  1.85031461e-01
  1.85176651e-01  1.87167460e-01  1.89214353e-01  1.89694781e-01
  1.91687194e-01  1.93023434e-01  1.96012841e-01  1.96926762e-01
  1.98723805e-01  1.99556936e-01  2.03273409e-01  2.05421503e-01
  2.08509059e-01  2.09472057e-01  2.15884222e-01  2.16283883e-01
  2.18131685e-01  2.21541734e-01  2.22515720e-01  2.23262292e-01
  2.24226498e-01  2.26070248e-01  2.28161344e-01  2.30824336e-01
  2.32798694e-01  2.35106376e-01  2.40340536e-01  2.42799644e-01
  2.44674019e-01  2.45362012e-01  2.47273537e-01  2.50831687e-01
  2.52780575e-01  2.55728742e-01  2.57362435e-01  2.60834684e-01
  2.65806619e-01  2.67458948e-01  2.69796394e-01  2.70329431e-01
  2.73867498e-01  2.77648680e-01  2.79730529e-01  2.81514337e-01
  2.87377041e-01  2.88315099e-01  2.92373484e-01  2.94527282e-01
  2.95676918e-01  2.97533628e-01  2.99806271e-01  3.04289055e-01
  3.06491569e-01  3.08727978e-01  3.09711957e-01  3.11460288e-01
  3.13608448e-01  3.15153459e-01  3.17754440e-01  3.21884999e-01
  3.25737833e-01  3.29018531e-01  3.31456900e-01  3.35690705e-01
  3.36559773e-01  3.38886920e-01  3.43588466e-01  3.44130923e-01
  3.48150531e-01  3.52787431e-01  3.55908721e-01  3.60579031e-01
  3.62147939e-01  3.62850878e-01  3.64475744e-01  3.70944726e-01
  3.73023041e-01  3.73861343e-01  3.81675449e-01  3.85135465e-01
  3.86843381e-01  3.88001389e-01  3.90170757e-01  3.90960958e-01
  3.92335061e-01  3.93779246e-01  3.94376496e-01  3.97325500e-01
  3.97891285e-01  4.01251734e-01  4.04786406e-01  4.07193481e-01
  4.09626215e-01  4.11370311e-01  4.12726159e-01  4.16891532e-01
  4.19384972e-01  4.20987186e-01  4.21475993e-01  4.23189913e-01
  4.26251895e-01  4.29404143e-01  4.33538713e-01  4.35566194e-01
  4.36965345e-01  4.39122217e-01  4.40803482e-01  4.45052898e-01
  4.48533200e-01  4.50695202e-01  4.52502138e-01  4.56967925e-01
  4.59409464e-01  4.60288713e-01  4.64570666e-01  4.65972172e-01
  4.67649497e-01  4.69944483e-01  4.75449602e-01  4.75779523e-01
  4.77274206e-01  4.79080814e-01  4.80133006e-01  4.81218009e-01
  4.84716483e-01  4.85129634e-01  4.85640052e-01  4.87998900e-01
  4.88831416e-01  4.91221974e-01  4.92320484e-01  4.96655574e-01
  5.01270222e-01  5.03065462e-01  5.03354171e-01  5.07218569e-01
  5.08046197e-01  5.13591122e-01  5.15505004e-01  5.16731389e-01
  5.17736073e-01  5.22446120e-01  5.24326280e-01  5.27973718e-01
  5.29400357e-01  5.31209764e-01  5.32203413e-01  5.33367607e-01
  5.33632457e-01  5.37541134e-01  5.38279341e-01  5.40066406e-01
  5.43119521e-01  5.44144207e-01  5.48187726e-01  5.48296192e-01
  5.51886524e-01  5.53929594e-01  5.55765295e-01  5.56989947e-01
  5.63479916e-01  5.65508346e-01  5.66758401e-01  5.68009287e-01
  5.71414413e-01  5.73469428e-01  5.75085493e-01  5.77513667e-01
  5.80817236e-01  5.82302784e-01  5.82865024e-01  5.85541755e-01
  5.89274478e-01  5.95042641e-01  5.96113721e-01  5.98093753e-01
  6.01738265e-01  6.04002147e-01  6.04459070e-01  6.07502083e-01
  6.12969141e-01  6.15623353e-01  6.15980500e-01  6.17539290e-01
  6.23626992e-01  6.25044781e-01  6.28643580e-01  6.30602514e-01
  6.32486121e-01  6.32948039e-01  6.34831534e-01  6.36956991e-01
  6.40122145e-01  6.42212103e-01  6.45694577e-01  6.47426956e-01
  6.48105534e-01  6.53816504e-01  6.58670735e-01  6.59970564e-01
  6.64618442e-01  6.65742105e-01  6.69416936e-01  6.69694329e-01
  6.77373018e-01  6.81417882e-01  6.85649551e-01  6.88361935e-01
  6.88865985e-01  6.91297331e-01  6.96230499e-01  7.02613015e-01
  7.05381107e-01  7.07598009e-01  7.16738357e-01  7.22853192e-01
  7.25152184e-01  7.26520695e-01  7.29801933e-01  7.31349768e-01
  7.39931055e-01  7.43130863e-01  7.44820887e-01  7.46594827e-01
  7.52116866e-01  7.53016108e-01  7.54837346e-01  7.59457613e-01
  7.62460610e-01  7.63779071e-01  7.66264907e-01  7.71276262e-01
  7.71620784e-01  7.74270384e-01  7.75281085e-01  7.77948442e-01
  7.81534082e-01  7.83247018e-01  7.84964463e-01  7.87729876e-01
  7.89585658e-01  7.92716820e-01  7.95829379e-01  7.97667631e-01
  7.99037474e-01  7.99682317e-01  8.02766497e-01  8.03942783e-01
  8.05665336e-01  8.08263986e-01  8.11130900e-01  8.13936297e-01
  8.18445033e-01  8.21883210e-01  8.24941123e-01  8.28075399e-01
  8.28280355e-01  8.33245230e-01  8.34548959e-01  8.38747284e-01
  8.40532359e-01  8.43738470e-01  8.43996439e-01  8.48311391e-01
  8.49590256e-01  8.51806256e-01  8.55450902e-01  8.58399832e-01
  8.59183114e-01  8.60849088e-01  8.64284425e-01  8.67505529e-01
  8.69062644e-01  8.74310655e-01  8.75839728e-01  8.77042348e-01
  8.81530639e-01  8.84104841e-01  8.84835483e-01  8.87344251e-01
  8.88133544e-01  8.91089938e-01  8.94001516e-01  8.96367685e-01
  8.98533688e-01  9.01800120e-01  9.04464760e-01  9.06007767e-01
  9.08832300e-01  9.10970579e-01  9.16142516e-01  9.17278605e-01
  9.22605365e-01  9.24961180e-01  9.27007967e-01  9.28484989e-01
  9.29714503e-01  9.30560109e-01  9.33862505e-01  9.36197233e-01
  9.36684374e-01  9.40212632e-01  9.41963235e-01  9.45316191e-01
  9.47755022e-01  9.47947337e-01  9.52146555e-01  9.54285020e-01
  9.56100567e-01  9.58214683e-01  9.61817151e-01  9.62633508e-01
  9.64383724e-01  9.65620089e-01  9.67261632e-01  9.70441702e-01
  9.71947962e-01  9.74044128e-01  9.76624842e-01  9.79058279e-01
  9.80506157e-01  9.84408498e-01  9.86981396e-01  9.89707815e-01
  9.91700612e-01  9.93955229e-01  9.95823194e-01  9.99679285e-01
  1.00219680e+00  1.00258008e+00  1.00498660e+00  1.00680133e+00
  1.00905762e+00  1.01381638e+00  1.01701336e+00  1.02019466e+00
  1.02171912e+00  1.02539809e+00  1.02979507e+00  1.03059774e+00
  1.03219955e+00  1.03454435e+00  1.03746854e+00  1.04056725e+00
  1.04242228e+00  1.04597726e+00  1.04813794e+00  1.05299986e+00
  1.05376882e+00  1.06014167e+00  1.06152407e+00  1.06332417e+00
  1.06529219e+00  1.07164133e+00  1.07341963e+00  1.07496932e+00
  1.07749373e+00  1.07944440e+00  1.08212603e+00  1.08323423e+00
  1.08668439e+00  1.08861832e+00  1.09336630e+00  1.09652419e+00
  1.09967206e+00  1.10170169e+00  1.10484035e+00  1.10751781e+00
  1.10958642e+00  1.11352035e+00  1.11526363e+00  1.11875800e+00
  1.12187373e+00  1.12380202e+00  1.12439751e+00  1.12715361e+00
  1.13251633e+00  1.13408764e+00  1.13763825e+00  1.14391711e+00
  1.14438166e+00  1.14639195e+00  1.14762460e+00  1.15174049e+00
  1.15212529e+00  1.15312567e+00  1.15639715e+00  1.16005525e+00
  1.16230781e+00  1.16408124e+00  1.16630396e+00  1.17103560e+00
  1.17323685e+00  1.17662539e+00  1.17847021e+00  1.18121962e+00
  1.18280586e+00  1.18561534e+00  1.19005301e+00  1.19327292e+00
  1.19877884e+00  1.20042713e+00  1.20085939e+00  1.20376410e+00
  1.20910984e+00  1.21278805e+00  1.21576499e+00  1.21838742e+00
  1.22258008e+00  1.22598136e+00  1.23016431e+00  1.23275596e+00
  1.23810437e+00  1.24146960e+00  1.24230219e+00  1.24524971e+00
  1.24863830e+00  1.24988369e+00  1.25319586e+00  1.25954518e+00
  1.26227867e+00  1.26354350e+00  1.26681862e+00  1.26819606e+00
  1.27059230e+00  1.27226301e+00  1.27805039e+00  1.28499251e+00
  1.28675235e+00  1.29168833e+00  1.29432326e+00  1.29866477e+00
  1.30221737e+00  1.30831547e+00  1.31097683e+00  1.31500337e+00
  1.32193716e+00  1.32297968e+00  1.32736557e+00  1.32801867e+00
  1.33225742e+00  1.33592648e+00  1.33936894e+00  1.34313471e+00
  1.34704759e+00  1.34759007e+00  1.35589393e+00  1.35947600e+00
  1.36264530e+00  1.36602035e+00  1.37295094e+00  1.37652725e+00
  1.37932861e+00  1.38113171e+00  1.38837321e+00  1.38945372e+00
  1.39605591e+00  1.39615125e+00  1.40702632e+00  1.40871310e+00
  1.41404677e+00  1.41661755e+00  1.42088029e+00  1.42200069e+00
  1.42525010e+00  1.42787776e+00  1.42978518e+00  1.43346315e+00
  1.44660972e+00  1.45081129e+00  1.45364125e+00  1.45998118e+00
  1.46332287e+00  1.46709113e+00  1.46904740e+00  1.47085116e+00
  1.47377328e+00  1.48383025e+00  1.48963325e+00  1.49185396e+00
  1.49328832e+00  1.49707111e+00  1.49906247e+00  1.50491853e+00
  1.51034316e+00  1.51509710e+00  1.51633243e+00  1.52264500e+00
  1.52641591e+00  1.52798572e+00  1.53186842e+00  1.53655153e+00
  1.54006123e+00  1.54225084e+00  1.54829131e+00  1.55022425e+00
  1.55885172e+00  1.56391160e+00  1.57356534e+00  1.57734095e+00
  1.58199550e+00  1.58699341e+00  1.60081969e+00  1.60354241e+00
  1.61353834e+00  1.61926643e+00  1.62301937e+00  1.62699954e+00
  1.64599121e+00  1.64700461e+00  1.65769256e+00  1.66660195e+00
  1.67389928e+00  1.68537562e+00  1.69000101e+00  1.71256243e+00
  1.72180971e+00  1.73522012e+00  1.74522844e+00  1.77300375e+00
  1.77443009e+00  1.78765846e+00  1.79089812e+00  1.82096972e+00
  1.86211582e+00  1.90768079e+00  1.91323233e+00  1.98257509e+00
  2.00077929e+00  2.06087520e+00  2.09305465e+00  2.15962674e+00
  2.21976842e+00  2.25238243e+00  2.27442194e+00  2.33672499e+00
  2.39720326e+00  2.42626760e+00  2.45540491e+00  2.48106675e+00
  2.51041741e+00  2.53549316e+00  2.58270874e+00  2.62260878e+00
  2.66981685e+00  2.68538965e+00  2.75781063e+00  2.78301354e+00
  2.79229388e+00  2.82959783e+00  2.84631033e+00  2.86432914e+00
  2.95377873e+00  2.97635831e+00  3.00682962e+00  3.06115162e+00
  3.07188392e+00  3.08025248e+00  3.13160810e+00  3.14759872e+00
  3.15780479e+00  3.16648177e+00  3.23955822e+00  3.24876924e+00
  3.26663912e+00  3.27646050e+00  3.29116565e+00  3.31237168e+00
  3.32324386e+00  3.34285243e+00  3.38434038e+00  3.39798783e+00
  3.41279349e+00  3.41611877e+00  3.42034614e+00  3.43138968e+00
  3.45406114e+00  3.48082632e+00  3.48644779e+00  3.49209329e+00
  3.50488974e+00  3.52742983e+00  3.53992187e+00  3.56032101e+00
  3.57534171e+00  3.59186733e+00  3.59648455e+00  3.63076239e+00
  3.65547642e+00  3.68912859e+00  3.69739010e+00  3.72372226e+00
  3.75347539e+00  3.77238762e+00  3.78218811e+00  3.81531623e+00
  3.82279525e+00  3.85831567e+00  3.86180162e+00  3.89223883e+00
  3.91926257e+00  3.92995498e+00  3.98135707e+00  4.01190769e+00
  4.01452320e+00  4.02245366e+00  4.04644229e+00  4.07445468e+00
  4.09264764e+00  4.10029427e+00  4.12504122e+00  4.17490292e+00
  4.21657409e+00  4.25032327e+00  4.26667427e+00  4.27250862e+00
  4.35612476e+00  4.36660517e+00  4.38373891e+00  4.40892687e+00
  4.46667246e+00  4.48168275e+00  4.48389502e+00  4.61287028e+00
  4.62666710e+00  4.65198764e+00  4.66422052e+00  4.77750674e+00
  4.81320398e+00  4.84912286e+00  4.91702216e+00  4.94658234e+00
  4.97425223e+00  5.01787993e+00  5.04975519e+00  5.11477012e+00
  5.19479607e+00  5.29262481e+00  5.29799887e+00  5.35245246e+00
  5.39919651e+00  5.47888737e+00  5.48359153e+00  5.48900425e+00
  5.60922154e+00  5.67443653e+00  5.68080468e+00  5.73101551e+00
  5.74266572e+00  5.76614813e+00  5.81439684e+00  5.90896175e+00
  5.95782447e+00  5.98875758e+00  6.04880574e+00  6.06865849e+00
  6.10300171e+00  6.15404339e+00  6.18948020e+00  6.23535875e+00
  6.24875848e+00  6.36956642e+00  6.41519973e+00  6.44185073e+00
  6.47794235e+00  6.58977010e+00  6.62824491e+00  6.75210656e+00
  6.83092633e+00  6.85967902e+00  6.91841114e+00  7.10267370e+00
  7.12645071e+00  7.15332067e+00  7.20480377e+00  7.22407038e+00
  7.26447185e+00  7.30121954e+00  7.36544289e+00  7.37419198e+00
  7.44656960e+00  7.54567505e+00  7.60727222e+00  7.65498124e+00
  7.77374237e+00  7.79229954e+00  8.05718625e+00  8.08412109e+00
  8.13255793e+00  8.49667151e+00  1.12507815e+01  1.31380809e+01
  1.33714762e+01  1.40740405e+01  1.58021460e+01  1.75485550e+01]
E1 = -2035.6536775375196  E_coul = 854.0786902560714
cycle= 2 E= -489.379451700948  delta_E= -0.111  |g|= 0.686  |ddm|= 4.78
    CPU time for cycle= 2    445.51 sec, wall time     14.05 sec
diis-norm(errvec)=3.43054
diis-c [-1.69746106  0.45498958  0.54501042]
  HOMO = -0.115149520725913  LUMO = -0.0287033783152368
  mo_energy =
[-2.06456329e+01 -2.06446515e+01 -2.06066398e+01 -1.14966036e+01
 -1.13370437e+01 -1.13359424e+01 -2.47109378e+00 -2.47029060e+00
 -2.46234899e+00 -2.46217400e+00 -2.46189591e+00 -2.46030655e+00
 -2.45429768e+00 -2.45308123e+00 -2.45275228e+00 -2.45079580e+00
 -2.44260801e+00 -2.43929840e+00 -2.43896568e+00 -2.43875224e+00
 -2.43448183e+00 -2.42467524e+00 -2.42352917e+00 -2.42213549e+00
 -2.42159258e+00 -2.41729277e+00 -1.65622506e+00 -1.50856345e+00
 -1.48333614e+00 -1.15246495e+00 -1.00335158e+00 -9.11466699e-01
 -8.47558624e-01 -8.20603690e-01 -7.65905096e-01 -7.35690237e-01
 -7.02686350e-01 -6.91160478e-01 -6.17510164e-01 -5.97454481e-01
 -5.55751057e-01 -5.41939393e-01 -5.16306061e-01 -3.12656141e-01
 -2.64432943e-01 -2.51496917e-01 -2.01059392e-01 -1.90634455e-01
 -1.88073680e-01 -1.57761242e-01 -1.53063207e-01 -1.50437587e-01
 -1.15149521e-01 -2.87033783e-02 -1.67013518e-02 -6.91538110e-03
 -6.35709702e-03  1.13487289e-04  5.79225505e-03  1.33966839e-02
  1.45162382e-02  1.66842572e-02  2.01789479e-02  2.17025772e-02
  2.41249575e-02  2.80000925e-02  2.98269438e-02  3.04115648e-02
  3.40856374e-02  4.10072356e-02  4.12876250e-02  4.55689259e-02
  4.63283223e-02  4.86387087e-02  5.23348650e-02  5.35638371e-02
  5.56460536e-02  5.75361722e-02  5.89427978e-02  6.04174574e-02
  6.12937663e-02  6.57161394e-02  6.58162666e-02  6.64252073e-02
  6.96800998e-02  7.06882567e-02  7.22952932e-02  7.26326426e-02
  7.41547679e-02  7.49850177e-02  7.78698065e-02  7.91741356e-02
  8.05363618e-02  8.13064683e-02  8.19322709e-02  8.37157368e-02
  8.64524891e-02  8.79811383e-02  8.90228555e-02  8.91945302e-02
  9.13346458e-02  9.27296950e-02  9.61223430e-02  9.80260178e-02
  9.95840656e-02  9.99662696e-02  1.01032890e-01  1.04755208e-01
  1.05853251e-01  1.07180473e-01  1.09063809e-01  1.11589513e-01
  1.15704705e-01  1.16481345e-01  1.16679012e-01  1.17934378e-01
  1.21117824e-01  1.22062428e-01  1.24033609e-01  1.24885419e-01
  1.26596093e-01  1.27680782e-01  1.29780285e-01  1.32790231e-01
  1.34599698e-01  1.39055964e-01  1.39893697e-01  1.41125793e-01
  1.44050532e-01  1.44459608e-01  1.45923705e-01  1.47302529e-01
  1.51001421e-01  1.52391747e-01  1.54975698e-01  1.55765291e-01
  1.57320397e-01  1.58959028e-01  1.63092151e-01  1.64326153e-01
  1.65502813e-01  1.68569085e-01  1.69405340e-01  1.70903644e-01
  1.71452061e-01  1.73949560e-01  1.74439065e-01  1.75466751e-01
  1.78240415e-01  1.82672425e-01  1.87749478e-01  1.89229324e-01
  1.90394709e-01  1.95208181e-01  1.97950694e-01  1.99792408e-01
  2.01002708e-01  2.02403794e-01  2.05911351e-01  2.07796719e-01
  2.08988987e-01  2.11425805e-01  2.14075891e-01  2.14830441e-01
  2.16134972e-01  2.17497073e-01  2.19989801e-01  2.20983935e-01
  2.26320921e-01  2.26603374e-01  2.28847777e-01  2.29743289e-01
  2.30723562e-01  2.31529395e-01  2.32468420e-01  2.36996620e-01
  2.38336292e-01  2.40117054e-01  2.43302730e-01  2.44030362e-01
  2.44974151e-01  2.49981374e-01  2.51009060e-01  2.51713379e-01
  2.54983514e-01  2.56868993e-01  2.59306255e-01  2.59884222e-01
  2.62314844e-01  2.64674653e-01  2.67508524e-01  2.71260991e-01
  2.73411683e-01  2.78725175e-01  2.82832374e-01  2.84447734e-01
  2.88955472e-01  2.90798353e-01  2.95938806e-01  2.97664981e-01
  3.04514553e-01  3.05074808e-01  3.05511161e-01  3.07128594e-01
  3.10080390e-01  3.16253831e-01  3.16917920e-01  3.19495632e-01
  3.23816845e-01  3.25652018e-01  3.26093391e-01  3.30800098e-01
  3.33475990e-01  3.34995184e-01  3.36060215e-01  3.37650493e-01
  3.39918059e-01  3.42359666e-01  3.42986247e-01  3.43870627e-01
  3.48027906e-01  3.48814308e-01  3.51690442e-01  3.52429029e-01
  3.55344207e-01  3.58825757e-01  3.59935931e-01  3.63438370e-01
  3.64953378e-01  3.67780899e-01  3.69143187e-01  3.73472333e-01
  3.75859403e-01  3.79303050e-01  3.84040763e-01  3.88415068e-01
  3.90898906e-01  3.91866910e-01  3.93953628e-01  3.96555924e-01
  4.00761609e-01  4.01120729e-01  4.02847636e-01  4.05672127e-01
  4.08409397e-01  4.13674510e-01  4.14534098e-01  4.17995459e-01
  4.19475806e-01  4.21351601e-01  4.23956307e-01  4.25690241e-01
  4.27720714e-01  4.30431442e-01  4.31583945e-01  4.32084142e-01
  4.32616583e-01  4.35690377e-01  4.36180494e-01  4.37368555e-01
  4.42960858e-01  4.44576143e-01  4.46230329e-01  4.47644088e-01
  4.51626676e-01  4.53784332e-01  4.55585186e-01  4.56641033e-01
  4.61208779e-01  4.63314266e-01  4.64774566e-01  4.69274766e-01
  4.70518235e-01  4.71049184e-01  4.72100231e-01  4.72863097e-01
  4.74078817e-01  4.78079343e-01  4.80712401e-01  4.82978522e-01
  4.84668677e-01  4.86411865e-01  4.86537442e-01  4.90031306e-01
  4.90846815e-01  4.92084602e-01  4.93825378e-01  4.94842145e-01
  5.00189176e-01  5.01614484e-01  5.04735202e-01  5.08922996e-01
  5.11015678e-01  5.12438617e-01  5.14695757e-01  5.17608864e-01
  5.18743685e-01  5.19803986e-01  5.21189031e-01  5.24706898e-01
  5.26989484e-01  5.28425413e-01  5.28988079e-01  5.31989799e-01
  5.33569358e-01  5.34586111e-01  5.36428103e-01  5.37562702e-01
  5.38857912e-01  5.43178155e-01  5.45930930e-01  5.47646945e-01
  5.48824898e-01  5.52401783e-01  5.53484232e-01  5.56000539e-01
  5.58076375e-01  5.59640724e-01  5.65958944e-01  5.66484356e-01
  5.70715881e-01  5.71998914e-01  5.76653515e-01  5.79271964e-01
  5.84843513e-01  5.86939360e-01  5.87866943e-01  5.90356166e-01
  5.92798135e-01  5.95146750e-01  5.98529879e-01  6.01215783e-01
  6.04186652e-01  6.11132844e-01  6.13313195e-01  6.13774337e-01
  6.17568553e-01  6.23483425e-01  6.28094340e-01  6.29892198e-01
  6.32091495e-01  6.38550076e-01  6.39774911e-01  6.43224458e-01
  6.43483961e-01  6.46831485e-01  6.52107074e-01  6.52797744e-01
  6.56407086e-01  6.59673827e-01  6.60451051e-01  6.66451427e-01
  6.67583447e-01  6.70298227e-01  6.74284479e-01  6.78037379e-01
  6.83858658e-01  6.88367916e-01  6.89674307e-01  6.91804982e-01
  6.96235188e-01  6.98133502e-01  6.99730474e-01  7.03204582e-01
  7.07144847e-01  7.09446871e-01  7.13098474e-01  7.14054138e-01
  7.15508809e-01  7.17569916e-01  7.20891862e-01  7.23433758e-01
  7.24089972e-01  7.27706664e-01  7.28050548e-01  7.33188431e-01
  7.35026116e-01  7.37766925e-01  7.40354624e-01  7.41696296e-01
  7.43624233e-01  7.45273462e-01  7.49283274e-01  7.51445538e-01
  7.54360651e-01  7.55911619e-01  7.57832971e-01  7.60720066e-01
  7.62416911e-01  7.64290669e-01  7.68055695e-01  7.70938149e-01
  7.73512654e-01  7.77004127e-01  7.79255147e-01  7.80826147e-01
  7.84099511e-01  7.86481459e-01  7.91562080e-01  7.92723407e-01
  7.94439812e-01  8.00074942e-01  8.03586376e-01  8.05603454e-01
  8.06666668e-01  8.08723763e-01  8.11598763e-01  8.18074848e-01
  8.18923891e-01  8.21156203e-01  8.23729546e-01  8.24535993e-01
  8.26427954e-01  8.29403325e-01  8.31604673e-01  8.32364148e-01
  8.35228339e-01  8.37937724e-01  8.38765948e-01  8.42593818e-01
  8.44538449e-01  8.46721692e-01  8.47947796e-01  8.48089889e-01
  8.50175358e-01  8.54344941e-01  8.59429312e-01  8.62550133e-01
  8.62759889e-01  8.64328861e-01  8.64985954e-01  8.67945516e-01
  8.72901676e-01  8.78609519e-01  8.80615040e-01  8.83757794e-01
  8.86845892e-01  8.86943442e-01  8.88492711e-01  8.89956395e-01
  8.91461127e-01  8.93268025e-01  8.99749858e-01  9.00246083e-01
  9.02968057e-01  9.07896702e-01  9.09620721e-01  9.11252540e-01
  9.12803289e-01  9.15272596e-01  9.16387459e-01  9.18778586e-01
  9.20164059e-01  9.21802756e-01  9.22220268e-01  9.24095804e-01
  9.27207785e-01  9.29094173e-01  9.30001605e-01  9.34435893e-01
  9.36674888e-01  9.37977816e-01  9.38918593e-01  9.40395468e-01
  9.43772495e-01  9.48052810e-01  9.50482871e-01  9.53388097e-01
  9.56030142e-01  9.60701617e-01  9.62596550e-01  9.64829180e-01
  9.67236481e-01  9.68730273e-01  9.69737079e-01  9.73954710e-01
  9.78193540e-01  9.79675129e-01  9.82031325e-01  9.84642075e-01
  9.85518906e-01  9.91076238e-01  9.92049646e-01  9.96996718e-01
  9.97947316e-01  1.00168793e+00  1.00300405e+00  1.00415815e+00
  1.00871703e+00  1.01134646e+00  1.01273066e+00  1.01450495e+00
  1.01889607e+00  1.02043677e+00  1.02286417e+00  1.02431002e+00
  1.02738981e+00  1.03043108e+00  1.03346433e+00  1.03844059e+00
  1.03920987e+00  1.04418678e+00  1.04520892e+00  1.04925061e+00
  1.05136821e+00  1.05486147e+00  1.05547282e+00  1.05786414e+00
  1.05897217e+00  1.06104579e+00  1.06418039e+00  1.06488927e+00
  1.06690175e+00  1.06851686e+00  1.07505740e+00  1.07623165e+00
  1.07871153e+00  1.08151710e+00  1.08321285e+00  1.08437187e+00
  1.08819117e+00  1.09109883e+00  1.09133361e+00  1.09513119e+00
  1.09661660e+00  1.10161335e+00  1.10463001e+00  1.10621077e+00
  1.11129050e+00  1.11317344e+00  1.11433555e+00  1.11593508e+00
  1.11854055e+00  1.12173762e+00  1.12798412e+00  1.12868857e+00
  1.13160839e+00  1.13371911e+00  1.13491128e+00  1.14109579e+00
  1.14201642e+00  1.14647954e+00  1.15104748e+00  1.15797806e+00
  1.15912958e+00  1.16302429e+00  1.16529779e+00  1.16645971e+00
  1.16996752e+00  1.17492196e+00  1.17979836e+00  1.18441775e+00
  1.18621812e+00  1.19039156e+00  1.19337910e+00  1.19457557e+00
  1.19816052e+00  1.20273818e+00  1.20296323e+00  1.20608555e+00
  1.20994930e+00  1.21201258e+00  1.21486693e+00  1.21589521e+00
  1.22073605e+00  1.22264812e+00  1.22650424e+00  1.22851485e+00
  1.23264949e+00  1.23604359e+00  1.23819220e+00  1.24170548e+00
  1.24446290e+00  1.24691556e+00  1.25067134e+00  1.25321506e+00
  1.25777510e+00  1.26058441e+00  1.26264127e+00  1.26679993e+00
  1.26917615e+00  1.27160493e+00  1.27785350e+00  1.28410049e+00
  1.28679471e+00  1.28705628e+00  1.29233547e+00  1.29408493e+00
  1.29648161e+00  1.30096068e+00  1.30169486e+00  1.30417812e+00
  1.31162931e+00  1.31366245e+00  1.31485383e+00  1.31836430e+00
  1.32001068e+00  1.32205393e+00  1.32344092e+00  1.33123754e+00
  1.33602209e+00  1.33666677e+00  1.34445746e+00  1.34777228e+00
  1.34999483e+00  1.35264931e+00  1.35851083e+00  1.36028913e+00
  1.36804509e+00  1.36957140e+00  1.37234889e+00  1.37873215e+00
  1.38370834e+00  1.38705830e+00  1.39047843e+00  1.39872927e+00
  1.40100843e+00  1.40569982e+00  1.41057599e+00  1.41227421e+00
  1.41512560e+00  1.41861768e+00  1.42025352e+00  1.42415158e+00
  1.42751287e+00  1.43366338e+00  1.43477100e+00  1.43907161e+00
  1.44119095e+00  1.44537622e+00  1.44938705e+00  1.45435231e+00
  1.45757685e+00  1.46240685e+00  1.46867497e+00  1.47243000e+00
  1.47686522e+00  1.48620666e+00  1.49052477e+00  1.49460713e+00
  1.50445460e+00  1.51267308e+00  1.51328788e+00  1.52200763e+00
  1.52461926e+00  1.53258294e+00  1.53424001e+00  1.54775598e+00
  1.56532651e+00  1.57288847e+00  1.58328510e+00  1.58552339e+00
  1.60688587e+00  1.61438315e+00  1.61854596e+00  1.63388939e+00
  1.65060859e+00  1.66124103e+00  1.66910769e+00  1.68475116e+00
  1.68762472e+00  1.69807974e+00  1.75752313e+00  1.80277893e+00
  1.86771911e+00  1.89376376e+00  1.90958172e+00  1.94770002e+00
  1.97974632e+00  2.00462140e+00  2.07048331e+00  2.11563670e+00
  2.16436646e+00  2.24649740e+00  2.28660911e+00  2.34580975e+00
  2.40676763e+00  2.43143835e+00  2.47385655e+00  2.47792508e+00
  2.51436035e+00  2.54287786e+00  2.61875368e+00  2.66824366e+00
  2.69023113e+00  2.71466840e+00  2.78322131e+00  2.80193061e+00
  2.82530961e+00  2.86541209e+00  2.86860314e+00  2.88896346e+00
  2.97373912e+00  3.00032712e+00  3.04973366e+00  3.05630935e+00
  3.10694404e+00  3.11823196e+00  3.14393906e+00  3.17408083e+00
  3.19513910e+00  3.22079117e+00  3.28340468e+00  3.29098913e+00
  3.29381356e+00  3.31388739e+00  3.32153608e+00  3.32590851e+00
  3.34144422e+00  3.37333833e+00  3.38635813e+00  3.39083200e+00
  3.41096573e+00  3.41716491e+00  3.43051369e+00  3.44306130e+00
  3.45871237e+00  3.46371113e+00  3.47037747e+00  3.49650391e+00
  3.51657473e+00  3.52034214e+00  3.52586274e+00  3.53859627e+00
  3.56338507e+00  3.57861813e+00  3.60728794e+00  3.63004473e+00
  3.66291744e+00  3.68429201e+00  3.69536905e+00  3.70582432e+00
  3.73507936e+00  3.76245570e+00  3.76993374e+00  3.79745036e+00
  3.84883327e+00  3.85043428e+00  3.88873039e+00  3.89493873e+00
  3.91745546e+00  3.95105685e+00  3.96108693e+00  3.96790058e+00
  3.97594506e+00  4.02001621e+00  4.03882276e+00  4.04237078e+00
  4.05237855e+00  4.07362529e+00  4.09327149e+00  4.15092222e+00
  4.24302743e+00  4.27701357e+00  4.28905977e+00  4.29434292e+00
  4.38260136e+00  4.39112994e+00  4.41908652e+00  4.43377630e+00
  4.46983531e+00  4.50100991e+00  4.51216051e+00  4.51788992e+00
  4.64873879e+00  4.67400252e+00  4.67568429e+00  4.71817080e+00
  4.77467799e+00  4.82055788e+00  4.83388994e+00  4.94021490e+00
  5.00863339e+00  5.04967135e+00  5.07945960e+00  5.13710984e+00
  5.17381501e+00  5.32005087e+00  5.32744057e+00  5.39047062e+00
  5.43303895e+00  5.48571887e+00  5.49228071e+00  5.52489612e+00
  5.57337681e+00  5.60024545e+00  5.60465140e+00  5.67924877e+00
  5.74851441e+00  5.75644097e+00  5.84270221e+00  5.87547554e+00
  5.98279566e+00  5.99121227e+00  6.08469080e+00  6.10912604e+00
  6.11225700e+00  6.13794947e+00  6.20074301e+00  6.20638446e+00
  6.27923446e+00  6.38849727e+00  6.44353083e+00  6.46208727e+00
  6.47864465e+00  6.59066948e+00  6.64330293e+00  6.71875131e+00
  6.79905828e+00  6.85424520e+00  6.90041402e+00  6.97258482e+00
  6.99914131e+00  7.03806952e+00  7.10370000e+00  7.20648353e+00
  7.23288957e+00  7.30266828e+00  7.35255549e+00  7.35958101e+00
  7.43114697e+00  7.46479239e+00  7.52751340e+00  7.53288674e+00
  7.75191129e+00  7.76990267e+00  7.93541500e+00  8.00559308e+00
  8.10389055e+00  8.44878805e+00  1.12419177e+01  1.31363750e+01
  1.33769542e+01  1.40976734e+01  1.58893689e+01  1.75170512e+01]
E1 = -2042.0104276647223  E_coul = 860.2763076009079
cycle= 3 E= -489.538584483315  delta_E= -0.159  |g|= 0.11  |ddm|= 3.07
    CPU time for cycle= 3    446.70 sec, wall time     14.08 sec
diis-norm(errvec)=0.704759
diis-c [-0.31769498 -0.00992137  0.10380696  0.9061144 ]
  HOMO = -0.105629953106535  LUMO = -0.0158784228509809
  mo_energy =
[-2.06583997e+01 -2.06578729e+01 -2.05947183e+01 -1.14210016e+01
 -1.12933749e+01 -1.12922696e+01 -2.45093123e+00 -2.45015304e+00
 -2.44893306e+00 -2.44808747e+00 -2.44549480e+00 -2.44434118e+00
 -2.44386591e+00 -2.44032914e+00 -2.44022165e+00 -2.43877326e+00
 -2.43835524e+00 -2.43364824e+00 -2.42841427e+00 -2.42291769e+00
 -2.39765054e+00 -2.39021194e+00 -2.38930041e+00 -2.38767256e+00
 -2.38600816e+00 -2.38556536e+00 -1.63226546e+00 -1.48310841e+00
 -1.46810282e+00 -1.12460030e+00 -9.81266163e-01 -8.95392937e-01
 -8.27972086e-01 -8.04496131e-01 -7.46354999e-01 -7.19242575e-01
 -6.81086303e-01 -6.76205450e-01 -6.11253408e-01 -5.79288804e-01
 -5.41045896e-01 -5.26820179e-01 -5.02639939e-01 -2.88959799e-01
 -2.48897696e-01 -2.33137605e-01 -1.85760066e-01 -1.82204072e-01
 -1.73504511e-01 -1.40789455e-01 -1.40145671e-01 -1.39137301e-01
 -1.05629953e-01 -1.58784229e-02 -3.98127006e-03  4.34945016e-03
  4.45446282e-03  8.76984361e-03  1.58330847e-02  2.13419047e-02
  2.18386897e-02  2.25588842e-02  2.68529162e-02  2.79237560e-02
  2.99788049e-02  3.35355902e-02  3.50591320e-02  3.57739921e-02
  3.87773343e-02  4.45447869e-02  4.70486818e-02  5.03380573e-02
  5.07985293e-02  5.17832594e-02  5.65109763e-02  5.73653129e-02
  5.92788622e-02  6.09096125e-02  6.32870287e-02  6.45589706e-02
  6.71492594e-02  6.96286584e-02  7.01122600e-02  7.17788995e-02
  7.28505714e-02  7.43275546e-02  7.59929602e-02  7.71539846e-02
  7.78511708e-02  7.87251829e-02  8.23622935e-02  8.26549190e-02
  8.40655275e-02  8.70278522e-02  8.70871078e-02  8.88269437e-02
  9.08030409e-02  9.17010024e-02  9.24214623e-02  9.33095067e-02
  9.53245456e-02  9.71111166e-02  1.00501579e-01  1.01347568e-01
  1.03442367e-01  1.04111295e-01  1.04492211e-01  1.07718725e-01
  1.08705158e-01  1.09002410e-01  1.13484721e-01  1.14973521e-01
  1.18501270e-01  1.20018462e-01  1.20299840e-01  1.21893839e-01
  1.23794014e-01  1.26543334e-01  1.27496145e-01  1.28873626e-01
  1.31769215e-01  1.33697469e-01  1.34369767e-01  1.36285620e-01
  1.37237425e-01  1.43468230e-01  1.44433380e-01  1.47648555e-01
  1.48975183e-01  1.49783613e-01  1.53760093e-01  1.54464746e-01
  1.60412247e-01  1.60683491e-01  1.61999471e-01  1.64482952e-01
  1.65455207e-01  1.66812297e-01  1.70442269e-01  1.71964107e-01
  1.74206563e-01  1.75269802e-01  1.77485573e-01  1.78196666e-01
  1.78451770e-01  1.81431367e-01  1.82572973e-01  1.83632462e-01
  1.85282888e-01  1.89548895e-01  1.94371307e-01  1.96092026e-01
  1.97854306e-01  2.03797570e-01  2.06592840e-01  2.06795813e-01
  2.10198868e-01  2.12093435e-01  2.15254596e-01  2.15912901e-01
  2.17012709e-01  2.18321208e-01  2.20935795e-01  2.21081624e-01
  2.21812508e-01  2.23933823e-01  2.27724052e-01  2.28498063e-01
  2.34249287e-01  2.34541603e-01  2.35790908e-01  2.36377185e-01
  2.37300384e-01  2.37918918e-01  2.42783942e-01  2.44859176e-01
  2.47257188e-01  2.47986338e-01  2.51332892e-01  2.55134840e-01
  2.55138671e-01  2.58440687e-01  2.58762032e-01  2.61718769e-01
  2.65482473e-01  2.67491528e-01  2.69709011e-01  2.70937075e-01
  2.72570835e-01  2.75060076e-01  2.78443139e-01  2.82796354e-01
  2.83186607e-01  2.88794598e-01  2.91117382e-01  2.93894917e-01
  2.96048040e-01  2.99133987e-01  3.07554872e-01  3.09166065e-01
  3.11957341e-01  3.14439050e-01  3.15528061e-01  3.16349815e-01
  3.18258712e-01  3.25306299e-01  3.26543616e-01  3.30479151e-01
  3.33184445e-01  3.35021729e-01  3.36664932e-01  3.41052632e-01
  3.43829916e-01  3.44493021e-01  3.46724877e-01  3.48600701e-01
  3.50956479e-01  3.54113483e-01  3.55208414e-01  3.58103883e-01
  3.59465774e-01  3.61048747e-01  3.63167236e-01  3.63726179e-01
  3.66858457e-01  3.69711178e-01  3.70689733e-01  3.73214914e-01
  3.74393794e-01  3.76669473e-01  3.77484501e-01  3.83696311e-01
  3.86070493e-01  3.90617160e-01  3.93031514e-01  3.95397327e-01
  3.99907011e-01  4.02638210e-01  4.02726900e-01  4.06168009e-01
  4.08646603e-01  4.10073908e-01  4.12625719e-01  4.17104915e-01
  4.19611018e-01  4.21701942e-01  4.25478511e-01  4.27176819e-01
  4.30501642e-01  4.31273516e-01  4.35241108e-01  4.38095013e-01
  4.38644639e-01  4.42809873e-01  4.44146192e-01  4.44768609e-01
  4.45981249e-01  4.47105624e-01  4.49087815e-01  4.50107889e-01
  4.51945141e-01  4.55881746e-01  4.57715348e-01  4.58274750e-01
  4.63963611e-01  4.64137272e-01  4.67057211e-01  4.67654035e-01
  4.72487519e-01  4.73956707e-01  4.74343660e-01  4.75391510e-01
  4.78717616e-01  4.79932179e-01  4.81491656e-01  4.82398020e-01
  4.85054452e-01  4.88584595e-01  4.90327602e-01  4.92655492e-01
  4.96747140e-01  4.97328189e-01  4.99811929e-01  5.00867462e-01
  5.02967065e-01  5.04059539e-01  5.05733982e-01  5.08347525e-01
  5.09633850e-01  5.11980698e-01  5.15425836e-01  5.18536907e-01
  5.22218810e-01  5.24905874e-01  5.25963221e-01  5.28898660e-01
  5.30647484e-01  5.31514045e-01  5.32138638e-01  5.34402011e-01
  5.39511406e-01  5.40436341e-01  5.41145366e-01  5.41889916e-01
  5.44070523e-01  5.46321971e-01  5.47833099e-01  5.51440545e-01
  5.53138661e-01  5.58209007e-01  5.60710667e-01  5.63360462e-01
  5.63816747e-01  5.66076201e-01  5.67575683e-01  5.68784491e-01
  5.71814591e-01  5.73377848e-01  5.77369024e-01  5.79336361e-01
  5.82710895e-01  5.83761606e-01  5.89703331e-01  5.92577059e-01
  5.96627604e-01  5.97831726e-01  6.00674396e-01  6.02394801e-01
  6.03729685e-01  6.08609368e-01  6.09440872e-01  6.14856093e-01
  6.17659481e-01  6.23186300e-01  6.24621392e-01  6.27867323e-01
  6.29281685e-01  6.34096423e-01  6.38737865e-01  6.41666229e-01
  6.45641755e-01  6.50080992e-01  6.52384207e-01  6.56109419e-01
  6.57660805e-01  6.59668271e-01  6.63018358e-01  6.67946398e-01
  6.70347348e-01  6.72196835e-01  6.75758158e-01  6.81082585e-01
  6.81716103e-01  6.85748820e-01  6.89058386e-01  6.93508092e-01
  6.99721759e-01  7.04271264e-01  7.06823637e-01  7.08837105e-01
  7.11906115e-01  7.14558539e-01  7.16458883e-01  7.18427862e-01
  7.20789125e-01  7.26671976e-01  7.27379524e-01  7.30733421e-01
  7.31724739e-01  7.35446313e-01  7.36748977e-01  7.38637293e-01
  7.41581581e-01  7.42980888e-01  7.45627696e-01  7.50462939e-01
  7.50949734e-01  7.52490242e-01  7.53485000e-01  7.57672937e-01
  7.58973673e-01  7.64664640e-01  7.65990305e-01  7.69050094e-01
  7.69863652e-01  7.70875636e-01  7.72849883e-01  7.74685945e-01
  7.76241376e-01  7.77699739e-01  7.81286089e-01  7.85613225e-01
  7.88461513e-01  7.90804090e-01  7.92839391e-01  7.96992310e-01
  7.97767003e-01  8.01051919e-01  8.05617217e-01  8.06361827e-01
  8.07255432e-01  8.12510417e-01  8.16971488e-01  8.19074472e-01
  8.20193321e-01  8.23366836e-01  8.28660681e-01  8.30229790e-01
  8.31261645e-01  8.36020094e-01  8.37688081e-01  8.38635619e-01
  8.39285420e-01  8.42688863e-01  8.44377128e-01  8.46681519e-01
  8.48838742e-01  8.52177227e-01  8.53858391e-01  8.56291833e-01
  8.58602637e-01  8.60322418e-01  8.61549159e-01  8.62938953e-01
  8.63268374e-01  8.69272146e-01  8.73557513e-01  8.75651930e-01
  8.77408887e-01  8.78913680e-01  8.80312992e-01  8.82559508e-01
  8.88316529e-01  8.93791748e-01  8.94192342e-01  8.97970103e-01
  8.99768559e-01  9.00146283e-01  9.02803079e-01  9.04443881e-01
  9.04936289e-01  9.05589395e-01  9.11204855e-01  9.15196203e-01
  9.16887514e-01  9.20994717e-01  9.22534070e-01  9.25677030e-01
  9.26887955e-01  9.28832346e-01  9.29788679e-01  9.30613343e-01
  9.32726607e-01  9.36122105e-01  9.37482999e-01  9.38956206e-01
  9.40074296e-01  9.45013191e-01  9.45806144e-01  9.47110198e-01
  9.50577485e-01  9.51477777e-01  9.53315578e-01  9.53993885e-01
  9.57369318e-01  9.61449911e-01  9.63681122e-01  9.67607895e-01
  9.69742302e-01  9.73592541e-01  9.74851651e-01  9.78450490e-01
  9.83119330e-01  9.84428583e-01  9.85731574e-01  9.88461034e-01
  9.91856841e-01  9.93963773e-01  9.96083127e-01  9.97724454e-01
  1.00039426e+00  1.00471015e+00  1.00660377e+00  1.01273484e+00
  1.01326556e+00  1.01410473e+00  1.01656914e+00  1.01971795e+00
  1.02266323e+00  1.02570911e+00  1.02699046e+00  1.02904199e+00
  1.03211002e+00  1.03491004e+00  1.03673303e+00  1.03951307e+00
  1.04236152e+00  1.04409563e+00  1.04758742e+00  1.05207622e+00
  1.05336302e+00  1.05888372e+00  1.06241751e+00  1.06266287e+00
  1.06583210e+00  1.06893677e+00  1.06978826e+00  1.07295966e+00
  1.07504151e+00  1.07641466e+00  1.07909946e+00  1.08068241e+00
  1.08327337e+00  1.08469789e+00  1.08939195e+00  1.09178933e+00
  1.09551411e+00  1.09615212e+00  1.09737025e+00  1.10131972e+00
  1.10419417e+00  1.10646323e+00  1.10904088e+00  1.11038833e+00
  1.11214045e+00  1.11525379e+00  1.12139261e+00  1.12368348e+00
  1.12534059e+00  1.12743607e+00  1.12888760e+00  1.13110984e+00
  1.13514080e+00  1.13639160e+00  1.14402321e+00  1.14517952e+00
  1.14765555e+00  1.14982586e+00  1.14997137e+00  1.15359083e+00
  1.15780201e+00  1.16214324e+00  1.16577743e+00  1.16999748e+00
  1.17238415e+00  1.17903509e+00  1.18020874e+00  1.18221703e+00
  1.18795391e+00  1.19107814e+00  1.19705424e+00  1.20037690e+00
  1.20282354e+00  1.20612679e+00  1.21022331e+00  1.21126050e+00
  1.21650274e+00  1.21746429e+00  1.21883682e+00  1.22098764e+00
  1.22451589e+00  1.22821059e+00  1.23122692e+00  1.23295165e+00
  1.23687191e+00  1.23838348e+00  1.24318495e+00  1.24493420e+00
  1.25029573e+00  1.25624424e+00  1.25697687e+00  1.25861036e+00
  1.26322736e+00  1.26668995e+00  1.27014107e+00  1.27171030e+00
  1.27674320e+00  1.27876792e+00  1.28199128e+00  1.28461296e+00
  1.28731008e+00  1.29025353e+00  1.29483018e+00  1.29787953e+00
  1.30582543e+00  1.30686221e+00  1.31094083e+00  1.31512836e+00
  1.31756880e+00  1.31850753e+00  1.31979403e+00  1.32422694e+00
  1.33201660e+00  1.33461627e+00  1.33631803e+00  1.33722077e+00
  1.33996575e+00  1.34399532e+00  1.34554356e+00  1.35068836e+00
  1.35604345e+00  1.36066474e+00  1.36661652e+00  1.36970462e+00
  1.37381472e+00  1.37618521e+00  1.38132575e+00  1.38268927e+00
  1.38737466e+00  1.39285369e+00  1.39790883e+00  1.40200206e+00
  1.40631648e+00  1.40941457e+00  1.41139235e+00  1.41818585e+00
  1.42086347e+00  1.42908241e+00  1.43190925e+00  1.43415163e+00
  1.43772292e+00  1.44145609e+00  1.44249065e+00  1.44453840e+00
  1.45241183e+00  1.45316768e+00  1.45662730e+00  1.45935375e+00
  1.46389794e+00  1.46578899e+00  1.47170050e+00  1.47606125e+00
  1.48052161e+00  1.48291547e+00  1.49197427e+00  1.49749882e+00
  1.50220964e+00  1.50985797e+00  1.51361829e+00  1.51769695e+00
  1.52522092e+00  1.53549032e+00  1.53691854e+00  1.54243292e+00
  1.54917479e+00  1.55406256e+00  1.56061312e+00  1.57344434e+00
  1.58629200e+00  1.58952382e+00  1.60962838e+00  1.61120119e+00
  1.63093873e+00  1.63707729e+00  1.63990750e+00  1.65936778e+00
  1.67321435e+00  1.68206891e+00  1.69356229e+00  1.70606669e+00
  1.70941283e+00  1.72098597e+00  1.77756033e+00  1.82153765e+00
  1.88498093e+00  1.91466457e+00  1.93044563e+00  1.96569158e+00
  1.99912509e+00  2.02234349e+00  2.08775177e+00  2.13354258e+00
  2.17997035e+00  2.26533370e+00  2.30235423e+00  2.36081215e+00
  2.42524646e+00  2.45153081e+00  2.49433487e+00  2.50064131e+00
  2.53394191e+00  2.56543981e+00  2.63882890e+00  2.69379466e+00
  2.71556371e+00  2.73897279e+00  2.80642333e+00  2.82414201e+00
  2.85302326e+00  2.88953225e+00  2.89245063e+00  2.90995849e+00
  2.99625151e+00  3.03004781e+00  3.06835926e+00  3.08205264e+00
  3.13434580e+00  3.14312488e+00  3.16812046e+00  3.19803257e+00
  3.22096522e+00  3.24728211e+00  3.29451432e+00  3.31200176e+00
  3.31630552e+00  3.33273793e+00  3.34094565e+00  3.35587337e+00
  3.36729056e+00  3.39611240e+00  3.39863211e+00  3.40672411e+00
  3.43371751e+00  3.43560167e+00  3.45004854e+00  3.46217874e+00
  3.47577975e+00  3.48695102e+00  3.49016053e+00  3.51676272e+00
  3.53635342e+00  3.53881440e+00  3.54797614e+00  3.55722329e+00
  3.57418956e+00  3.58989617e+00  3.63075235e+00  3.64447961e+00
  3.68776393e+00  3.70611307e+00  3.71786862e+00  3.72703329e+00
[...]
  9.99843825e-01  1.00438251e+00  1.00692343e+00  1.01293814e+00
  1.01306966e+00  1.01612338e+00  1.01667610e+00  1.01853846e+00
  1.02265116e+00  1.02577540e+00  1.02746181e+00  1.02886968e+00
  1.03286207e+00  1.03502209e+00  1.03769385e+00  1.03914073e+00
  1.04200217e+00  1.04467103e+00  1.04791733e+00  1.05245914e+00
  1.05388192e+00  1.05874083e+00  1.06153289e+00  1.06334553e+00
  1.06559443e+00  1.06938799e+00  1.06993946e+00  1.07263643e+00
  1.07456338e+00  1.07535430e+00  1.07873678e+00  1.08107449e+00
  1.08249601e+00  1.08456079e+00  1.09090119e+00  1.09151778e+00
  1.09541539e+00  1.09659469e+00  1.09853977e+00  1.10138152e+00
  1.10402170e+00  1.10682008e+00  1.10825643e+00  1.10986971e+00
  1.11226180e+00  1.11561124e+00  1.12067124e+00  1.12359949e+00
  1.12663578e+00  1.12822718e+00  1.12955177e+00  1.13170333e+00
  1.13557615e+00  1.13678688e+00  1.14319519e+00  1.14548562e+00
  1.14800072e+00  1.14999022e+00  1.15119038e+00  1.15507019e+00
  1.15785664e+00  1.16242095e+00  1.16711754e+00  1.17203855e+00
  1.17313380e+00  1.17973478e+00  1.18180856e+00  1.18339740e+00
  1.18799797e+00  1.19146957e+00  1.19724253e+00  1.20162297e+00
  1.20279564e+00  1.20628013e+00  1.20901462e+00  1.21126522e+00
  1.21639589e+00  1.21749736e+00  1.21961544e+00  1.22128995e+00
  1.22539436e+00  1.22835010e+00  1.23216408e+00  1.23286519e+00
  1.23709869e+00  1.23805444e+00  1.24315939e+00  1.24544300e+00
  1.24992852e+00  1.25514210e+00  1.25576052e+00  1.25850718e+00
  1.26234564e+00  1.26607183e+00  1.26921030e+00  1.27037069e+00
  1.27487784e+00  1.27688902e+00  1.28092623e+00  1.28381268e+00
  1.28658379e+00  1.28866746e+00  1.29408388e+00  1.29945520e+00
  1.30349240e+00  1.30576952e+00  1.31003074e+00  1.31369161e+00
  1.31627250e+00  1.31727744e+00  1.31838986e+00  1.32247733e+00
  1.32931688e+00  1.33276687e+00  1.33444646e+00  1.33639802e+00
  1.33833870e+00  1.34222649e+00  1.34459938e+00  1.34978940e+00
  1.35441044e+00  1.35898301e+00  1.36546854e+00  1.36791531e+00
  1.37072714e+00  1.37353054e+00  1.37829067e+00  1.37993375e+00
  1.38603442e+00  1.39103123e+00  1.39583769e+00  1.39981854e+00
  1.40374372e+00  1.40788782e+00  1.41009697e+00  1.41564943e+00
  1.41831916e+00  1.42806749e+00  1.42922061e+00  1.43109987e+00
  1.43503931e+00  1.43937329e+00  1.44111589e+00  1.44268635e+00
  1.45106083e+00  1.45148453e+00  1.45430288e+00  1.45882403e+00
  1.46133688e+00  1.46395786e+00  1.46949446e+00  1.47397128e+00
  1.47908271e+00  1.48111575e+00  1.48906451e+00  1.49497657e+00
  1.50016473e+00  1.50813785e+00  1.51189341e+00  1.51605682e+00
  1.52462782e+00  1.53349907e+00  1.53430292e+00  1.53982353e+00
  1.54619215e+00  1.55242782e+00  1.55799660e+00  1.56980067e+00
  1.58183005e+00  1.58624138e+00  1.60665757e+00  1.60894839e+00
  1.62733741e+00  1.63195427e+00  1.63639833e+00  1.65452942e+00
  1.66956156e+00  1.67887037e+00  1.68962071e+00  1.70272143e+00
  1.70579316e+00  1.71507969e+00  1.77229682e+00  1.81844355e+00
  1.88015870e+00  1.90785313e+00  1.92496716e+00  1.96127588e+00
  1.99349292e+00  2.01705597e+00  2.08246663e+00  2.12827927e+00
  2.17578062e+00  2.26008153e+00  2.29765755e+00  2.35692725e+00
  2.41984236e+00  2.44625692e+00  2.48936090e+00  2.49059238e+00
  2.52829469e+00  2.55764328e+00  2.63341067e+00  2.68629414e+00
  2.70680435e+00  2.73182459e+00  2.79950093e+00  2.81836567e+00
  2.84291979e+00  2.88216235e+00  2.88507673e+00  2.90327823e+00
  2.98905136e+00  3.01992569e+00  3.06749231e+00  3.07450746e+00
  3.12605456e+00  3.13581915e+00  3.16118862e+00  3.19165235e+00
  3.21374403e+00  3.23916823e+00  3.29731151e+00  3.30751335e+00
  3.30958506e+00  3.33239936e+00  3.33881917e+00  3.34509109e+00
  3.36002141e+00  3.39190118e+00  3.40304400e+00  3.40587332e+00
  3.42766883e+00  3.43767097e+00  3.44844111e+00  3.45953056e+00
  3.47681561e+00  3.48124519e+00  3.48766497e+00  3.51491580e+00
  3.53355662e+00  3.53634719e+00  3.54284104e+00  3.55401922e+00
  3.57679370e+00  3.58953049e+00  3.62398366e+00  3.64853355e+00
  3.67985277e+00  3.70027428e+00  3.71166666e+00  3.72129290e+00
  3.76205421e+00  3.78123491e+00  3.78660957e+00  3.81507073e+00
  3.86636533e+00  3.86794294e+00  3.90640029e+00  3.92102628e+00
  3.93603943e+00  3.96765830e+00  3.98071507e+00  3.99520334e+00
  4.00262894e+00  4.03818314e+00  4.05702219e+00  4.06887897e+00
  4.07032336e+00  4.09087824e+00  4.11077699e+00  4.16928734e+00
  4.25999741e+00  4.29460282e+00  4.30341638e+00  4.31145018e+00
  4.39964745e+00  4.40823802e+00  4.43696950e+00  4.45191827e+00
  4.49098397e+00  4.51774254e+00  4.52899608e+00  4.53568510e+00
  4.66634372e+00  4.69068569e+00  4.69584293e+00  4.73503185e+00
  4.78876748e+00  4.83414504e+00  4.84777311e+00  4.95709734e+00
  5.02581762e+00  5.06446159e+00  5.09635797e+00  5.15400154e+00
  5.18935854e+00  5.33603307e+00  5.34344536e+00  5.40931336e+00
  5.45077686e+00  5.50147160e+00  5.50642613e+00  5.54339505e+00
  5.58768624e+00  5.61426681e+00  5.62357478e+00  5.69699541e+00
  5.76594614e+00  5.77191021e+00  5.85963170e+00  5.88996234e+00
  5.99635202e+00  6.00828238e+00  6.10161077e+00  6.12534007e+00
  6.13119189e+00  6.15451604e+00  6.21465639e+00  6.22082175e+00
  6.29649090e+00  6.40208491e+00  6.45911760e+00  6.47661942e+00
  6.49120608e+00  6.60430986e+00  6.65819014e+00  6.73344093e+00
  6.81388741e+00  6.86820810e+00  6.91417393e+00  6.98633531e+00
  7.01373529e+00  7.05481561e+00  7.12261519e+00  7.21699732e+00
  7.24249271e+00  7.31339583e+00  7.35922218e+00  7.36563699e+00
  7.44033182e+00  7.47650445e+00  7.53911784e+00  7.54065570e+00
  7.76302386e+00  7.77650708e+00  7.95092607e+00  8.01529999e+00
  8.11156792e+00  8.46642663e+00  1.12553981e+01  1.31533660e+01
  1.33841361e+01  1.41169542e+01  1.59115121e+01  1.75439612e+01]
E1 = -2041.1038781668008  E_coul = 859.3552159415979
cycle= 38 E= -489.553126644703  delta_E= -3.09e-10  |g|= 1.88e-05  |ddm|= 2.12e-05
    CPU time for cycle= 38    438.64 sec, wall time     13.89 sec
  HOMO = -0.108894233669219  LUMO = -0.0106485795398747
  mo_energy =
[-2.06490125e+01 -2.06477433e+01 -2.05835890e+01 -1.14535542e+01
 -1.13108726e+01 -1.13097015e+01 -2.45275738e+00 -2.45071188e+00
 -2.44031117e+00 -2.43950298e+00 -2.43872515e+00 -2.43693677e+00
 -2.43656476e+00 -2.43651182e+00 -2.43570723e+00 -2.43554353e+00
 -2.43513740e+00 -2.43436754e+00 -2.43184292e+00 -2.41609449e+00
 -2.40657951e+00 -2.39874660e+00 -2.39451500e+00 -2.39322194e+00
 -2.39261382e+00 -2.39240852e+00 -1.64015361e+00 -1.49003141e+00
 -1.47263774e+00 -1.13225378e+00 -9.86921384e-01 -8.99513540e-01
 -8.33771077e-01 -8.08466664e-01 -7.51392034e-01 -7.24977978e-01
 -6.87023219e-01 -6.80968036e-01 -6.13668832e-01 -5.87039572e-01
 -5.45656233e-01 -5.30067605e-01 -5.07319182e-01 -2.88796588e-01
 -2.46361284e-01 -2.32523680e-01 -1.86420809e-01 -1.84948213e-01
 -1.74493609e-01 -1.44708865e-01 -1.42673277e-01 -1.41767077e-01
 -1.08894234e-01 -1.06485795e-02 -7.56576550e-04  5.96403926e-03
  6.64990827e-03  1.26576455e-02  1.87777912e-02  2.23697314e-02
  2.28675301e-02  2.42365073e-02  2.73050220e-02  2.96028687e-02
  3.03809610e-02  3.31513180e-02  3.46607895e-02  3.62084338e-02
  3.88808132e-02  4.62564868e-02  4.74826378e-02  5.06529189e-02
  5.16826257e-02  5.21997892e-02  5.76003702e-02  5.80132495e-02
  6.04500124e-02  6.15704360e-02  6.41148214e-02  6.52904161e-02
  6.78782399e-02  6.97944442e-02  7.05659339e-02  7.24041127e-02
  7.42148303e-02  7.47404593e-02  7.69225437e-02  7.76196049e-02
  7.84406099e-02  7.92969737e-02  8.27195666e-02  8.33300970e-02
  8.48655093e-02  8.69650394e-02  8.74924781e-02  8.90086536e-02
  9.02156105e-02  9.18335541e-02  9.19774331e-02  9.37294924e-02
  9.52137392e-02  9.75508297e-02  1.01242513e-01  1.02103540e-01
  1.03679104e-01  1.05028783e-01  1.05547860e-01  1.08074918e-01
  1.09305037e-01  1.09578442e-01  1.14309393e-01  1.15574139e-01
  1.18895224e-01  1.20662818e-01  1.20822969e-01  1.22568063e-01
  1.24304591e-01  1.26653174e-01  1.27382100e-01  1.28759465e-01
  1.31968216e-01  1.33845702e-01  1.35199436e-01  1.36887436e-01
  1.38020605e-01  1.43746093e-01  1.45139351e-01  1.48440999e-01
  1.48913392e-01  1.49497770e-01  1.54345725e-01  1.54957903e-01
  1.60477438e-01  1.60871525e-01  1.61834930e-01  1.65205851e-01
  1.65513405e-01  1.67047876e-01  1.70502375e-01  1.73083712e-01
  1.73650321e-01  1.75419818e-01  1.77353915e-01  1.78267069e-01
  1.79629534e-01  1.81634552e-01  1.83004182e-01  1.84443924e-01
  1.85914030e-01  1.89984927e-01  1.95266911e-01  1.97819154e-01
  1.98843795e-01  2.03318407e-01  2.07260274e-01  2.08133546e-01
  2.10469292e-01  2.13109711e-01  2.14679864e-01  2.16448487e-01
  2.17833495e-01  2.19458004e-01  2.19981191e-01  2.22421745e-01
  2.22879357e-01  2.23947351e-01  2.28769322e-01  2.29161389e-01
  2.34274547e-01  2.36005803e-01  2.36727147e-01  2.37007696e-01
  2.38007389e-01  2.39174453e-01  2.42370544e-01  2.45931245e-01
  2.47472654e-01  2.47504993e-01  2.51869868e-01  2.54618000e-01
  2.55838974e-01  2.59084746e-01  2.59849038e-01  2.61170760e-01
  2.65999747e-01  2.67954968e-01  2.70122663e-01  2.70778271e-01
  2.72597338e-01  2.75286512e-01  2.78389627e-01  2.83233743e-01
  2.83854919e-01  2.88914750e-01  2.91813647e-01  2.94638910e-01
  2.96944021e-01  3.00447731e-01  3.07241388e-01  3.08729641e-01
  3.14002053e-01  3.14841029e-01  3.15552360e-01  3.17273867e-01
  3.19409549e-01  3.25481245e-01  3.27529646e-01  3.31071375e-01
  3.34032851e-01  3.35592130e-01  3.36225193e-01  3.41045201e-01
  3.44000454e-01  3.45302513e-01  3.46678623e-01  3.48081266e-01
  3.50218360e-01  3.53448998e-01  3.54708100e-01  3.57407638e-01
  3.60040216e-01  3.60886957e-01  3.63436497e-01  3.63719977e-01
  3.66728422e-01  3.69736666e-01  3.70848523e-01  3.73780364e-01
  3.75122055e-01  3.77501961e-01  3.77905598e-01  3.83945939e-01
  3.86423212e-01  3.90517068e-01  3.93206255e-01  3.97058987e-01
  4.00616725e-01  4.03398620e-01  4.03912014e-01  4.07241069e-01
  4.10157261e-01  4.10886647e-01  4.14046778e-01  4.17830148e-01
  4.19573898e-01  4.23512727e-01  4.26339502e-01  4.27448436e-01
  4.30907060e-01  4.31153328e-01  4.36069001e-01  4.37657491e-01
  4.39505891e-01  4.42874365e-01  4.43295705e-01  4.44969515e-01
  4.46676141e-01  4.46884602e-01  4.49586474e-01  4.50387671e-01
  4.52860418e-01  4.56969071e-01  4.58243703e-01  4.58828482e-01
  4.62837829e-01  4.64793256e-01  4.66886251e-01  4.67337929e-01
  4.72755128e-01  4.73611167e-01  4.75555296e-01  4.77948937e-01
  4.79917149e-01  4.80729856e-01  4.83110482e-01  4.83309642e-01
  4.85585041e-01  4.88487490e-01  4.92016264e-01  4.93124703e-01
  4.97545024e-01  4.97920023e-01  4.98654096e-01  5.01310903e-01
  5.03303814e-01  5.03598781e-01  5.05393140e-01  5.07930565e-01
  5.10903371e-01  5.11930972e-01  5.15421306e-01  5.18606771e-01
  5.21891040e-01  5.25033103e-01  5.26328522e-01  5.29393010e-01
  5.30826949e-01  5.31546426e-01  5.33433526e-01  5.34456871e-01
  5.39655311e-01  5.40043567e-01  5.41543512e-01  5.42173757e-01
  5.44845944e-01  5.46729564e-01  5.47850964e-01  5.51019695e-01
  5.52690308e-01  5.57413588e-01  5.60008834e-01  5.63275086e-01
  5.63813298e-01  5.65481263e-01  5.67217609e-01  5.68205636e-01
  5.71628293e-01  5.72035069e-01  5.78814606e-01  5.79303205e-01
  5.82798876e-01  5.83713374e-01  5.89400215e-01  5.92124333e-01
  5.97752303e-01  5.97883672e-01  6.00302842e-01  6.02884456e-01
  6.04686740e-01  6.10042207e-01  6.10327969e-01  6.14332051e-01
  6.18125892e-01  6.24777083e-01  6.25919161e-01  6.26867375e-01
  6.29980552e-01  6.35533803e-01  6.39625613e-01  6.42276770e-01
  6.45618169e-01  6.50056761e-01  6.51842637e-01  6.56289675e-01
  6.56670370e-01  6.60487145e-01  6.62747567e-01  6.66812925e-01
  6.69273566e-01  6.72110017e-01  6.74403554e-01  6.81345287e-01
  6.81867021e-01  6.84667458e-01  6.88413739e-01  6.92348568e-01
  7.00057523e-01  7.04205855e-01  7.06157074e-01  7.08214740e-01
  7.12312485e-01  7.14089064e-01  7.16293017e-01  7.18228731e-01
  7.22691074e-01  7.26715440e-01  7.28745119e-01  7.30021582e-01
  7.31710110e-01  7.35049393e-01  7.36818441e-01  7.39014744e-01
  7.41259530e-01  7.42949856e-01  7.45082167e-01  7.50717061e-01
  7.51127683e-01  7.53982862e-01  7.54698617e-01  7.56816057e-01
  7.59629884e-01  7.64018152e-01  7.65856933e-01  7.67873799e-01
  7.70114359e-01  7.71150170e-01  7.73287872e-01  7.74859343e-01
  7.77486538e-01  7.78344655e-01  7.82423980e-01  7.86581067e-01
  7.88647449e-01  7.91178858e-01  7.93699107e-01  7.96634976e-01
  7.98714277e-01  8.01740322e-01  8.06641617e-01  8.07762967e-01
  8.09688424e-01  8.13663542e-01  8.18665646e-01  8.19968485e-01
  8.21235629e-01  8.23342491e-01  8.28500299e-01  8.32413637e-01
  8.33118905e-01  8.36575749e-01  8.38001830e-01  8.39725342e-01
  8.40480062e-01  8.43770763e-01  8.45449900e-01  8.47898198e-01
  8.49624595e-01  8.52565789e-01  8.53550398e-01  8.57213698e-01
  8.58566025e-01  8.61233572e-01  8.62106786e-01  8.63003652e-01
  8.64326892e-01  8.69309864e-01  8.74524156e-01  8.77876315e-01
  8.78562769e-01  8.79895817e-01  8.81361194e-01  8.82697723e-01
  8.88062428e-01  8.94559499e-01  8.95433179e-01  8.99084251e-01
  9.00733639e-01  9.01372932e-01  9.04479888e-01  9.05469613e-01
  9.06107411e-01  9.07358176e-01  9.13185563e-01  9.15856934e-01
  9.18026942e-01  9.21926869e-01  9.23716415e-01  9.26577854e-01
  9.27743372e-01  9.30114385e-01  9.31052558e-01  9.32436455e-01
  9.33627877e-01  9.36793976e-01  9.37609361e-01  9.38821376e-01
  9.41201323e-01  9.44758482e-01  9.44821640e-01  9.47197342e-01
  9.50991387e-01  9.52229744e-01  9.53820137e-01  9.54492873e-01
  9.57497508e-01  9.61800145e-01  9.64484549e-01  9.68405003e-01
  9.69986375e-01  9.74149471e-01  9.76464261e-01  9.78475390e-01
  9.83350427e-01  9.84673274e-01  9.84839484e-01  9.87995958e-01
  9.94242399e-01  9.95316452e-01  9.97306258e-01  9.98677008e-01
  9.99843756e-01  1.00438241e+00  1.00692344e+00  1.01293802e+00
  1.01306958e+00  1.01612335e+00  1.01667604e+00  1.01853848e+00
  1.02265114e+00  1.02577536e+00  1.02746167e+00  1.02886953e+00
  1.03286200e+00  1.03502198e+00  1.03769388e+00  1.03914069e+00
  1.04200219e+00  1.04467090e+00  1.04791736e+00  1.05245919e+00
  1.05388182e+00  1.05874080e+00  1.06153278e+00  1.06334546e+00
  1.06559426e+00  1.06938796e+00  1.06993945e+00  1.07263639e+00
  1.07456338e+00  1.07535416e+00  1.07873667e+00  1.08107441e+00
  1.08249599e+00  1.08456076e+00  1.09090116e+00  1.09151768e+00
  1.09541531e+00  1.09659465e+00  1.09853975e+00  1.10138154e+00
  1.10402169e+00  1.10682005e+00  1.10825632e+00  1.10986974e+00
  1.11226186e+00  1.11561116e+00  1.12067124e+00  1.12359930e+00
  1.12663580e+00  1.12822721e+00  1.12955177e+00  1.13170322e+00
  1.13557608e+00  1.13678674e+00  1.14319508e+00  1.14548558e+00
  1.14800074e+00  1.14999019e+00  1.15119034e+00  1.15507012e+00
  1.15785653e+00  1.16242087e+00  1.16711752e+00  1.17203848e+00
  1.17313376e+00  1.17973467e+00  1.18180842e+00  1.18339750e+00
  1.18799780e+00  1.19146934e+00  1.19724242e+00  1.20162284e+00
  1.20279555e+00  1.20628005e+00  1.20901453e+00  1.21126523e+00
  1.21639576e+00  1.21749724e+00  1.21961545e+00  1.22128989e+00
  1.22539439e+00  1.22835002e+00  1.23216404e+00  1.23286503e+00
  1.23709863e+00  1.23805432e+00  1.24315940e+00  1.24544288e+00
  1.24992842e+00  1.25514188e+00  1.25576046e+00  1.25850718e+00
  1.26234542e+00  1.26607175e+00  1.26921022e+00  1.27037062e+00
  1.27487762e+00  1.27688889e+00  1.28092610e+00  1.28381246e+00
  1.28658385e+00  1.28866740e+00  1.29408369e+00  1.29945499e+00
  1.30349227e+00  1.30576945e+00  1.31003049e+00  1.31369149e+00
  1.31627246e+00  1.31727731e+00  1.31838958e+00  1.32247715e+00
  1.32931673e+00  1.33276662e+00  1.33444637e+00  1.33639779e+00
  1.33833866e+00  1.34222620e+00  1.34459940e+00  1.34978919e+00
  1.35441026e+00  1.35898298e+00  1.36546845e+00  1.36791516e+00
  1.37072689e+00  1.37353039e+00  1.37829050e+00  1.37993362e+00
  1.38603417e+00  1.39103105e+00  1.39583765e+00  1.39981846e+00
  1.40374352e+00  1.40788762e+00  1.41009684e+00  1.41564928e+00
  1.41831891e+00  1.42806750e+00  1.42922047e+00  1.43109968e+00
  1.43503925e+00  1.43937314e+00  1.44111582e+00  1.44268624e+00
  1.45106062e+00  1.45148433e+00  1.45430276e+00  1.45882389e+00
  1.46133672e+00  1.46395765e+00  1.46949432e+00  1.47397124e+00
  1.47908255e+00  1.48111561e+00  1.48906430e+00  1.49497643e+00
  1.50016463e+00  1.50813770e+00  1.51189323e+00  1.51605656e+00
  1.52462763e+00  1.53349880e+00  1.53430279e+00  1.53982334e+00
  1.54619197e+00  1.55242760e+00  1.55799641e+00  1.56980053e+00
  1.58182991e+00  1.58624122e+00  1.60665730e+00  1.60894815e+00
  1.62733721e+00  1.63195400e+00  1.63639811e+00  1.65452919e+00
  1.66956135e+00  1.67887016e+00  1.68962048e+00  1.70272132e+00
  1.70579280e+00  1.71507941e+00  1.77229656e+00  1.81844345e+00
  1.88015847e+00  1.90785283e+00  1.92496694e+00  1.96127595e+00
  1.99349283e+00  2.01705546e+00  2.08246614e+00  2.12827930e+00
  2.17578032e+00  2.26008122e+00  2.29765691e+00  2.35692683e+00
  2.41984196e+00  2.44625670e+00  2.48936051e+00  2.49059190e+00
  2.52829442e+00  2.55764276e+00  2.63341028e+00  2.68629379e+00
  2.70680409e+00  2.73182428e+00  2.79950076e+00  2.81836536e+00
  2.84291933e+00  2.88216196e+00  2.88507646e+00  2.90327786e+00
  2.98905110e+00  3.01992532e+00  3.06749214e+00  3.07450718e+00
  3.12605419e+00  3.13581886e+00  3.16118828e+00  3.19165205e+00
  3.21374369e+00  3.23916789e+00  3.29731129e+00  3.30751309e+00
  3.30958474e+00  3.33239908e+00  3.33881917e+00  3.34509064e+00
  3.36002106e+00  3.39190056e+00  3.40304407e+00  3.40587323e+00
  3.42766847e+00  3.43767114e+00  3.44844122e+00  3.45953033e+00
  3.47681545e+00  3.48124496e+00  3.48766471e+00  3.51491602e+00
  3.53355664e+00  3.53634700e+00  3.54284078e+00  3.55401930e+00
  3.57679329e+00  3.58953019e+00  3.62398324e+00  3.64853322e+00
  3.67985232e+00  3.70027380e+00  3.71166632e+00  3.72129255e+00
  3.76205395e+00  3.78123474e+00  3.78660913e+00  3.81507024e+00
  3.86636498e+00  3.86794279e+00  3.90640008e+00  3.92102619e+00
  3.93603908e+00  3.96765791e+00  3.98071484e+00  3.99520306e+00
  4.00262910e+00  4.03818293e+00  4.05702201e+00  4.06887873e+00
  4.07032286e+00  4.09087806e+00  4.11077660e+00  4.16928705e+00
  4.25999720e+00  4.29460275e+00  4.30341600e+00  4.31144993e+00
  4.39964717e+00  4.40823785e+00  4.43696923e+00  4.45191816e+00
  4.49098355e+00  4.51774225e+00  4.52899598e+00  4.53568492e+00
  4.66634348e+00  4.69068568e+00  4.69584260e+00  4.73503262e+00
  4.78876773e+00  4.83414502e+00  4.84777266e+00  4.95709700e+00
  5.02581735e+00  5.06446111e+00  5.09635768e+00  5.15400126e+00
  5.18935834e+00  5.33603264e+00  5.34344490e+00  5.40931322e+00
  5.45077664e+00  5.50147154e+00  5.50642577e+00  5.54339484e+00
  5.58768690e+00  5.61426740e+00  5.62357478e+00  5.69699527e+00
  5.76594585e+00  5.77190984e+00  5.85963124e+00  5.88996211e+00
  5.99635138e+00  6.00828223e+00  6.10161020e+00  6.12534013e+00
  6.13119154e+00  6.15451549e+00  6.21465582e+00  6.22082118e+00
  6.29649044e+00  6.40208410e+00  6.45911696e+00  6.47661882e+00
  6.49120534e+00  6.60430932e+00  6.65818937e+00  6.73344061e+00
  6.81388743e+00  6.86820756e+00  6.91417349e+00  6.98633579e+00
  7.01373618e+00  7.05481558e+00  7.12261511e+00  7.21699666e+00
  7.24249199e+00  7.31339496e+00  7.35922130e+00  7.36563591e+00
  7.44033131e+00  7.47650490e+00  7.53911685e+00  7.54065557e+00
  7.76302350e+00  7.77650610e+00  7.95092628e+00  8.01529958e+00
  8.11156702e+00  8.46642644e+00  1.12553974e+01  1.31533657e+01
  1.33841348e+01  1.41169538e+01  1.59115118e+01  1.75439612e+01]
E1 = -2041.103910834222  E_coul = 859.3552486065136
Extra cycle  E= -489.553126647209  delta_E= -2.51e-09  |g|= 1.9e-05  |ddm|= 0.000159
    CPU time for scf_cycle  20180.73 sec, wall time    637.11 sec
    CPU time for SCF  20180.74 sec, wall time    637.11 sec
converged SCF energy = -489.553126647209
