#INFO: **** input file is /burg/ccce/users/eav2136/projects/batteries/01_mp2/hf_script.py ****
#!/usr/bin/env python3
from pyscf import gto, scf, mp
import sys
from fileutils import dump
import h5py

mol = gto.Mole()
mol.verbose = 10
mol.atom = f"geom_{sys.argv[1]}.xyz"
mol.basis = "ccpvtz"
mol.unit = "ANG"
mol.build()

mf = scf.RHF(mol)
conv, e_tot, mo_energy, mo_coeff, mo_occ = mf.kernel()

dataout = {}
dataout["e_tot"] = e_tot
dataout["conv"] = conv
dump(dataout, f"data/hf_geom_{sys.argv[1]}.json")

with h5py.File(f"data/hf_geom_{sys.argv[1]}.h5", "w") as f:
    f.create_dataset("mo_energy", data=mo_energy)
    f.create_dataset("mo_coeff", data=mo_coeff)#INFO: ******************** input file end ********************


System: uname_result(system='Linux', node='g103', release='4.18.0-193.el8.x86_64', version='#1 SMP Fri Mar 27 14:35:58 UTC 2020', machine='x86_64')  Threads 32
Python 3.10.12 (main, Jul 29 2023, 11:27:27) [GCC 13.2.0]
numpy 1.25.1  scipy 1.10.1
Date: Fri Jan 19 10:46:33 2024
PySCF version 2.0.1
PySCF path  /burg/berkelbach/users/eav2136/builds/pyscf/projected-cvs/pyscf
GIT ORIG_HEAD 0bfbc692adf3ea63b8a509210433219cd1c472a2
GIT HEAD (branch projected-cvs) e14caaa2dddc538b9be2d86f01e5b456fc92da36

[ENV] PYSCF_TMPDIR /burg/ccce/users/eav2136/projects/batteries/01_mp2/tmp
[ENV] PYSCF_MAX_MEMORY 700000
[CONFIG] DEBUG = False
[CONFIG] MAX_MEMORY = 700000
[CONFIG] TMPDIR = /burg/ccce/users/eav2136/projects/batteries/01_mp2/tmp
[CONFIG] UNIT = angstrom
[CONFIG] VERBOSE = 3
[CONFIG] conf_file = None
[INPUT] verbose = 10
[INPUT] max_memory = 700000 
[INPUT] num. atoms = 14
[INPUT] num. electrons = 58
[INPUT] charge = 0
[INPUT] spin (= nelec alpha-beta = 2S) = 0
[INPUT] symmetry False subgroup None
[INPUT] Mole.unit = ANG
[INPUT]  1 C      4.889700000000   4.599650000000  10.258310000000 AA    9.240193831286   8.692078768856  19.385396400887 Bohr
[INPUT]  2 O      4.870170000000   4.245790000000   8.952570000000 AA    9.203287480073   8.023380282417  16.917905410997 Bohr
[INPUT]  3 C      5.310840000000   5.193710000000   8.233300000000 AA   10.036033091385   9.814689470415  15.558682101382 Bohr
[INPUT]  4 O      5.765780000000   6.111200000000   8.982240000000 AA   10.895745094495  11.548494292442  16.973973585113 Bohr
[INPUT]  5 C      5.774150000000   5.702340000000  10.272330000000 AA   10.911562102157  10.775860869152  19.411890361153 Bohr
[INPUT]  6 O      5.299720000000   5.216150000000   7.112960000000 AA   10.015019336880   9.857094924650  13.441546334986 Bohr
[INPUT]  7 H      5.212360000000   3.798320000000  10.814180000000 AA    9.849932862638   7.177784533458  20.435838461749 Bohr
[INPUT]  8 H      3.953110000000   4.871240000000  10.548100000000 AA    7.470295240279   9.205309487026  19.933020134525 Bohr
[INPUT]  9 H      5.464720000000   6.479910000000  10.867980000000 AA   10.326824147433  12.245255211830  20.537505727251 Bohr
[INPUT] 10 H      6.716790000000   5.418990000000  10.529430000000 AA   12.692893536217  10.240406971757  19.897738947779 Bohr
[INPUT] 11 Li     5.263950000000   5.263950000000   5.263950000000 AA    9.947423833404   9.947423833404   9.947423833404 Bohr
[INPUT] 12 Li     5.263950000000   1.754650000000   5.263950000000 AA    9.947423833404   3.315807944468   9.947423833404 Bohr
[INPUT] 13 Li     8.773250000000   5.263950000000   5.263950000000 AA   16.579039722340   9.947423833404   9.947423833404 Bohr
[INPUT] 14 Li     1.754650000000   5.263950000000   5.263950000000 AA    3.315807944468   9.947423833404   9.947423833404 Bohr
[INPUT] ---------------- BASIS SET ---------------- 
[INPUT] l, kappa, [nprim/nctr], expnt,             c_1 c_2 ...
[INPUT] O
[INPUT] 0    0    [8    /2   ]  15330             0.000508 -0.000115
                                2299              0.003929 -0.000895
                                522.4             0.020243 -0.004636
                                147.3             0.079181 -0.018724
                                47.55             0.230687 -0.058463
                                16.76             0.433118 -0.136463
                                6.207             0.35026 -0.17574
                                0.6882            -0.008154 0.603418
[INPUT] 0    0    [1    /1   ]  1.752                1
[INPUT] 0    0    [1    /1   ]  0.2384               1
[INPUT] 1    0    [3    /1   ]  34.46             0.015928
                                7.749             0.09974
                                2.28              0.310492
[INPUT] 1    0    [1    /1   ]  0.7156               1
[INPUT] 1    0    [1    /1   ]  0.214                1
[INPUT] 2    0    [1    /1   ]  2.314                1
[INPUT] 2    0    [1    /1   ]  0.645                1
[INPUT] 3    0    [1    /1   ]  1.428                1
[INPUT] Li
[INPUT] 0    0    [9    /2   ]  5988              0.000133 -2.1e-05
                                898.9             0.001025 -0.000161
                                205.9             0.005272 -0.00082
                                59.24             0.020929 -0.003326
                                19.87             0.06634 -0.010519
                                7.406             0.165775 -0.028097
                                2.93              0.315038 -0.055936
                                1.189             0.393523 -0.099237
                                0.4798            0.19087 -0.112189
[INPUT] 0    0    [1    /1   ]  0.07509              1
[INPUT] 0    0    [1    /1   ]  0.02832              1
[INPUT] 1    0    [3    /1   ]  3.266             0.00863
                                0.6511            0.047538
                                0.1696            0.209772
[INPUT] 1    0    [1    /1   ]  0.05578              1
[INPUT] 1    0    [1    /1   ]  0.0205               1
[INPUT] 2    0    [1    /1   ]  0.1874               1
[INPUT] 2    0    [1    /1   ]  0.0801               1
[INPUT] 3    0    [1    /1   ]  0.1829               1
[INPUT] C
[INPUT] 0    0    [8    /2   ]  8236              0.000531 -0.000113
                                1235              0.004108 -0.000878
                                280.8             0.021087 -0.00454
                                79.27             0.081853 -0.018133
                                25.59             0.234817 -0.05576
                                8.997             0.434401 -0.126895
                                3.319             0.346129 -0.170352
                                0.3643            -0.008983 0.598684
[INPUT] 0    0    [1    /1   ]  0.9059               1
[INPUT] 0    0    [1    /1   ]  0.1285               1
[INPUT] 1    0    [3    /1   ]  18.71             0.014031
                                4.133             0.086866
                                1.2               0.290216
[INPUT] 1    0    [1    /1   ]  0.3827               1
[INPUT] 1    0    [1    /1   ]  0.1209               1
[INPUT] 2    0    [1    /1   ]  1.097                1
[INPUT] 2    0    [1    /1   ]  0.318                1
[INPUT] 3    0    [1    /1   ]  0.761                1
[INPUT] H
[INPUT] 0    0    [3    /1   ]  33.87             0.006068
                                5.095             0.045308
                                1.159             0.202822
[INPUT] 0    0    [1    /1   ]  0.3258               1
[INPUT] 0    0    [1    /1   ]  0.1027               1
[INPUT] 1    0    [1    /1   ]  1.407                1
[INPUT] 1    0    [1    /1   ]  0.388                1
[INPUT] 2    0    [1    /1   ]  1.057                1

nuclear repulsion = 333.891144681366
number of shells = 114
number of NR pGTOs = 488
number of NR cGTOs = 356
basis = ccpvtz
ecp = {}
bas 0, expnt(s) = [8.236e+03 1.235e+03 2.808e+02 7.927e+01 2.559e+01 8.997e+00 3.319e+00
 3.643e-01]
bas 1, expnt(s) = [0.9059]
bas 2, expnt(s) = [0.1285]
bas 3, expnt(s) = [18.71   4.133  1.2  ]
bas 4, expnt(s) = [0.3827]
bas 5, expnt(s) = [0.1209]
bas 6, expnt(s) = [1.097]
bas 7, expnt(s) = [0.318]
bas 8, expnt(s) = [0.761]
bas 9, expnt(s) = [1.533e+04 2.299e+03 5.224e+02 1.473e+02 4.755e+01 1.676e+01 6.207e+00
 6.882e-01]
bas 10, expnt(s) = [1.752]
bas 11, expnt(s) = [0.2384]
bas 12, expnt(s) = [34.46   7.749  2.28 ]
bas 13, expnt(s) = [0.7156]
bas 14, expnt(s) = [0.214]
bas 15, expnt(s) = [2.314]
bas 16, expnt(s) = [0.645]
bas 17, expnt(s) = [1.428]
bas 18, expnt(s) = [8.236e+03 1.235e+03 2.808e+02 7.927e+01 2.559e+01 8.997e+00 3.319e+00
 3.643e-01]
bas 19, expnt(s) = [0.9059]
bas 20, expnt(s) = [0.1285]
bas 21, expnt(s) = [18.71   4.133  1.2  ]
bas 22, expnt(s) = [0.3827]
bas 23, expnt(s) = [0.1209]
bas 24, expnt(s) = [1.097]
bas 25, expnt(s) = [0.318]
bas 26, expnt(s) = [0.761]
bas 27, expnt(s) = [1.533e+04 2.299e+03 5.224e+02 1.473e+02 4.755e+01 1.676e+01 6.207e+00
 6.882e-01]
bas 28, expnt(s) = [1.752]
bas 29, expnt(s) = [0.2384]
bas 30, expnt(s) = [34.46   7.749  2.28 ]
bas 31, expnt(s) = [0.7156]
bas 32, expnt(s) = [0.214]
bas 33, expnt(s) = [2.314]
bas 34, expnt(s) = [0.645]
bas 35, expnt(s) = [1.428]
bas 36, expnt(s) = [8.236e+03 1.235e+03 2.808e+02 7.927e+01 2.559e+01 8.997e+00 3.319e+00
 3.643e-01]
bas 37, expnt(s) = [0.9059]
bas 38, expnt(s) = [0.1285]
bas 39, expnt(s) = [18.71   4.133  1.2  ]
bas 40, expnt(s) = [0.3827]
bas 41, expnt(s) = [0.1209]
bas 42, expnt(s) = [1.097]
bas 43, expnt(s) = [0.318]
bas 44, expnt(s) = [0.761]
bas 45, expnt(s) = [1.533e+04 2.299e+03 5.224e+02 1.473e+02 4.755e+01 1.676e+01 6.207e+00
 6.882e-01]
bas 46, expnt(s) = [1.752]
bas 47, expnt(s) = [0.2384]
bas 48, expnt(s) = [34.46   7.749  2.28 ]
bas 49, expnt(s) = [0.7156]
bas 50, expnt(s) = [0.214]
bas 51, expnt(s) = [2.314]
bas 52, expnt(s) = [0.645]
bas 53, expnt(s) = [1.428]
bas 54, expnt(s) = [33.87   5.095  1.159]
bas 55, expnt(s) = [0.3258]
bas 56, expnt(s) = [0.1027]
bas 57, expnt(s) = [1.407]
bas 58, expnt(s) = [0.388]
bas 59, expnt(s) = [1.057]
bas 60, expnt(s) = [33.87   5.095  1.159]
bas 61, expnt(s) = [0.3258]
bas 62, expnt(s) = [0.1027]
bas 63, expnt(s) = [1.407]
bas 64, expnt(s) = [0.388]
bas 65, expnt(s) = [1.057]
bas 66, expnt(s) = [33.87   5.095  1.159]
bas 67, expnt(s) = [0.3258]
bas 68, expnt(s) = [0.1027]
bas 69, expnt(s) = [1.407]
bas 70, expnt(s) = [0.388]
bas 71, expnt(s) = [1.057]
bas 72, expnt(s) = [33.87   5.095  1.159]
bas 73, expnt(s) = [0.3258]
bas 74, expnt(s) = [0.1027]
bas 75, expnt(s) = [1.407]
bas 76, expnt(s) = [0.388]
bas 77, expnt(s) = [1.057]
bas 78, expnt(s) = [5.988e+03 8.989e+02 2.059e+02 5.924e+01 1.987e+01 7.406e+00 2.930e+00
 1.189e+00 4.798e-01]
bas 79, expnt(s) = [0.07509]
bas 80, expnt(s) = [0.02832]
bas 81, expnt(s) = [3.266  0.6511 0.1696]
bas 82, expnt(s) = [0.05578]
bas 83, expnt(s) = [0.0205]
bas 84, expnt(s) = [0.1874]
bas 85, expnt(s) = [0.0801]
bas 86, expnt(s) = [0.1829]
bas 87, expnt(s) = [5.988e+03 8.989e+02 2.059e+02 5.924e+01 1.987e+01 7.406e+00 2.930e+00
 1.189e+00 4.798e-01]
bas 88, expnt(s) = [0.07509]
bas 89, expnt(s) = [0.02832]
bas 90, expnt(s) = [3.266  0.6511 0.1696]
bas 91, expnt(s) = [0.05578]
bas 92, expnt(s) = [0.0205]
bas 93, expnt(s) = [0.1874]
bas 94, expnt(s) = [0.0801]
bas 95, expnt(s) = [0.1829]
bas 96, expnt(s) = [5.988e+03 8.989e+02 2.059e+02 5.924e+01 1.987e+01 7.406e+00 2.930e+00
 1.189e+00 4.798e-01]
bas 97, expnt(s) = [0.07509]
bas 98, expnt(s) = [0.02832]
bas 99, expnt(s) = [3.266  0.6511 0.1696]
bas 100, expnt(s) = [0.05578]
bas 101, expnt(s) = [0.0205]
bas 102, expnt(s) = [0.1874]
bas 103, expnt(s) = [0.0801]
bas 104, expnt(s) = [0.1829]
bas 105, expnt(s) = [5.988e+03 8.989e+02 2.059e+02 5.924e+01 1.987e+01 7.406e+00 2.930e+00
 1.189e+00 4.798e-01]
bas 106, expnt(s) = [0.07509]
bas 107, expnt(s) = [0.02832]
bas 108, expnt(s) = [3.266  0.6511 0.1696]
bas 109, expnt(s) = [0.05578]
bas 110, expnt(s) = [0.0205]
bas 111, expnt(s) = [0.1874]
bas 112, expnt(s) = [0.0801]
bas 113, expnt(s) = [0.1829]
CPU time:         0.88
arg.atm = [[ 6 20  1 23  0  0]
 [ 8 24  1 27  0  0]
 [ 6 28  1 31  0  0]
 [ 8 32  1 35  0  0]
 [ 6 36  1 39  0  0]
 [ 8 40  1 43  0  0]
 [ 1 44  1 47  0  0]
 [ 1 48  1 51  0  0]
 [ 1 52  1 55  0  0]
 [ 1 56  1 59  0  0]
 [ 3 60  1 63  0  0]
 [ 3 64  1 67  0  0]
 [ 3 68  1 71  0  0]
 [ 3 72  1 75  0  0]]
arg.bas = [[  0   0   8   2   0 167 175   0]
 [  0   0   1   1   0 191 192   0]
 [  0   0   1   1   0 193 194   0]
 [  0   1   3   1   0 195 198   0]
 [  0   1   1   1   0 201 202   0]
 [  0   1   1   1   0 203 204   0]
 [  0   2   1   1   0 205 206   0]
 [  0   2   1   1   0 207 208   0]
 [  0   3   1   1   0 209 210   0]
 [  1   0   8   2   0  76  84   0]
 [  1   0   1   1   0 100 101   0]
 [  1   0   1   1   0 102 103   0]
 [  1   1   3   1   0 104 107   0]
 [  1   1   1   1   0 110 111   0]
 [  1   1   1   1   0 112 113   0]
 [  1   2   1   1   0 114 115   0]
 [  1   2   1   1   0 116 117   0]
 [  1   3   1   1   0 118 119   0]
 [  2   0   8   2   0 167 175   0]
 [  2   0   1   1   0 191 192   0]
 [  2   0   1   1   0 193 194   0]
 [  2   1   3   1   0 195 198   0]
 [  2   1   1   1   0 201 202   0]
 [  2   1   1   1   0 203 204   0]
 [  2   2   1   1   0 205 206   0]
 [  2   2   1   1   0 207 208   0]
 [  2   3   1   1   0 209 210   0]
 [  3   0   8   2   0  76  84   0]
 [  3   0   1   1   0 100 101   0]
 [  3   0   1   1   0 102 103   0]
 [  3   1   3   1   0 104 107   0]
 [  3   1   1   1   0 110 111   0]
 [  3   1   1   1   0 112 113   0]
 [  3   2   1   1   0 114 115   0]
 [  3   2   1   1   0 116 117   0]
 [  3   3   1   1   0 118 119   0]
 [  4   0   8   2   0 167 175   0]
 [  4   0   1   1   0 191 192   0]
 [  4   0   1   1   0 193 194   0]
 [  4   1   3   1   0 195 198   0]
 [  4   1   1   1   0 201 202   0]
 [  4   1   1   1   0 203 204   0]
 [  4   2   1   1   0 205 206   0]
 [  4   2   1   1   0 207 208   0]
 [  4   3   1   1   0 209 210   0]
 [  5   0   8   2   0  76  84   0]
 [  5   0   1   1   0 100 101   0]
 [  5   0   1   1   0 102 103   0]
 [  5   1   3   1   0 104 107   0]
 [  5   1   1   1   0 110 111   0]
 [  5   1   1   1   0 112 113   0]
 [  5   2   1   1   0 114 115   0]
 [  5   2   1   1   0 116 117   0]
 [  5   3   1   1   0 118 119   0]
 [  6   0   3   1   0 211 214   0]
 [  6   0   1   1   0 217 218   0]
 [  6   0   1   1   0 219 220   0]
 [  6   1   1   1   0 221 222   0]
 [  6   1   1   1   0 223 224   0]
 [  6   2   1   1   0 225 226   0]
 [  7   0   3   1   0 211 214   0]
 [  7   0   1   1   0 217 218   0]
 [  7   0   1   1   0 219 220   0]
 [  7   1   1   1   0 221 222   0]
 [  7   1   1   1   0 223 224   0]
 [  7   2   1   1   0 225 226   0]
 [  8   0   3   1   0 211 214   0]
 [  8   0   1   1   0 217 218   0]
 [  8   0   1   1   0 219 220   0]
 [  8   1   1   1   0 221 222   0]
 [  8   1   1   1   0 223 224   0]
 [  8   2   1   1   0 225 226   0]
 [  9   0   3   1   0 211 214   0]
 [  9   0   1   1   0 217 218   0]
 [  9   0   1   1   0 219 220   0]
 [  9   1   1   1   0 221 222   0]
 [  9   1   1   1   0 223 224   0]
 [  9   2   1   1   0 225 226   0]
 [ 10   0   9   2   0 120 129   0]
 [ 10   0   1   1   0 147 148   0]
 [ 10   0   1   1   0 149 150   0]
 [ 10   1   3   1   0 151 154   0]
 [ 10   1   1   1   0 157 158   0]
 [ 10   1   1   1   0 159 160   0]
 [ 10   2   1   1   0 161 162   0]
 [ 10   2   1   1   0 163 164   0]
 [ 10   3   1   1   0 165 166   0]
 [ 11   0   9   2   0 120 129   0]
 [ 11   0   1   1   0 147 148   0]
 [ 11   0   1   1   0 149 150   0]
 [ 11   1   3   1   0 151 154   0]
 [ 11   1   1   1   0 157 158   0]
 [ 11   1   1   1   0 159 160   0]
 [ 11   2   1   1   0 161 162   0]
 [ 11   2   1   1   0 163 164   0]
 [ 11   3   1   1   0 165 166   0]
 [ 12   0   9   2   0 120 129   0]
 [ 12   0   1   1   0 147 148   0]
 [ 12   0   1   1   0 149 150   0]
 [ 12   1   3   1   0 151 154   0]
 [ 12   1   1   1   0 157 158   0]
 [ 12   1   1   1   0 159 160   0]
 [ 12   2   1   1   0 161 162   0]
 [ 12   2   1   1   0 163 164   0]
 [ 12   3   1   1   0 165 166   0]
 [ 13   0   9   2   0 120 129   0]
 [ 13   0   1   1   0 147 148   0]
 [ 13   0   1   1   0 149 150   0]
 [ 13   1   3   1   0 151 154   0]
 [ 13   1   1   1   0 157 158   0]
 [ 13   1   1   1   0 159 160   0]
 [ 13   2   1   1   0 161 162   0]
 [ 13   2   1   1   0 163 164   0]
 [ 13   3   1   1   0 165 166   0]]
arg.env = [ 0.00000000e+00  0.00000000e+00  0.00000000e+00  0.00000000e+00
  0.00000000e+00  0.00000000e+00  0.00000000e+00  0.00000000e+00
  0.00000000e+00  0.00000000e+00  0.00000000e+00  0.00000000e+00
  0.00000000e+00  0.00000000e+00  0.00000000e+00  0.00000000e+00
  0.00000000e+00  0.00000000e+00  0.00000000e+00  0.00000000e+00
  9.24019383e+00  8.69207877e+00  1.93853964e+01  0.00000000e+00
  9.20328748e+00  8.02338028e+00  1.69179054e+01  0.00000000e+00
  1.00360331e+01  9.81468947e+00  1.55586821e+01  0.00000000e+00
  1.08957451e+01  1.15484943e+01  1.69739736e+01  0.00000000e+00
  1.09115621e+01  1.07758609e+01  1.94118904e+01  0.00000000e+00
  1.00150193e+01  9.85709492e+00  1.34415463e+01  0.00000000e+00
  9.84993286e+00  7.17778453e+00  2.04358385e+01  0.00000000e+00
  7.47029524e+00  9.20530949e+00  1.99330201e+01  0.00000000e+00
  1.03268241e+01  1.22452552e+01  2.05375057e+01  0.00000000e+00
  1.26928935e+01  1.02404070e+01  1.98977389e+01  0.00000000e+00
  9.94742383e+00  9.94742383e+00  9.94742383e+00  0.00000000e+00
  9.94742383e+00  3.31580794e+00  9.94742383e+00  0.00000000e+00
  1.65790397e+01  9.94742383e+00  9.94742383e+00  0.00000000e+00
  3.31580794e+00  9.94742383e+00  9.94742383e+00  0.00000000e+00
  1.53300000e+04  2.29900000e+03  5.22400000e+02  1.47300000e+02
  4.75500000e+01  1.67600000e+01  6.20700000e+00  6.88200000e-01
  1.81067529e+00  3.37486577e+00  5.72265412e+00  8.66150357e+00
  1.08070276e+01  9.28179538e+00  3.56346173e+00 -1.59395830e-02
 -6.86527364e-01 -1.28759909e+00 -2.19507417e+00 -3.43047366e+00
 -4.58719692e+00 -4.89805685e+00 -2.99457591e+00  1.97563931e+00
  1.75200000e+00  3.84738459e+00  2.38400000e-01  8.61975084e-01
  3.44600000e+01  7.74900000e+00  2.28000000e+00  1.00262994e+01
  9.72213774e+00  6.55849668e+00  7.15600000e-01  1.92009319e+00
  2.14000000e-01  4.24621137e-01  2.31400000e+00  1.13283134e+01
  6.45000000e-01  1.21132000e+00  1.42800000e+00  4.39692268e+00
  5.98800000e+03  8.98900000e+02  2.05900000e+02  5.92400000e+01
  1.98700000e+01  7.40600000e+00  2.93000000e+00  1.18900000e+00
  4.79800000e-01  2.29069316e-01  4.25756548e-01  7.25056076e-01
  1.13074246e+00  1.57971158e+00  1.88304523e+00  1.78512072e+00
  1.13373211e+00  2.78411257e-01 -1.33552750e-01 -2.46934407e-01
 -4.16416863e-01 -6.63522613e-01 -9.24900580e-01 -1.17847379e+00
 -1.17034612e+00 -1.05567981e+00 -6.04251387e-01  7.50900000e-02
  3.62411193e-01  2.83200000e-02  1.74415453e-01  3.26600000e+00
  6.51100000e-01  1.69600000e-01  4.55280795e-01  3.34078737e-01
  2.74333054e-01  5.57800000e-02  7.90828897e-02  2.05000000e-02
  2.26295917e-02  1.87400000e-01  1.39275961e-01  8.01000000e-02
  3.14692425e-02  1.82900000e-01  4.31510332e-02  8.23600000e+03
  1.23500000e+03  2.80800000e+02  7.92700000e+01  2.55900000e+01
  8.99700000e+00  3.31900000e+00  3.64300000e-01  1.18480296e+00
  2.20874210e+00  3.73316324e+00  5.61216719e+00  6.89519583e+00
  5.82409515e+00  2.19663441e+00 -1.08712663e-02 -4.28969670e-01
 -8.03166571e-01 -1.36745981e+00 -2.11525239e+00 -2.78571299e+00
 -2.89453423e+00 -1.83934657e+00  1.23268730e+00  9.05900000e-01
  2.34598494e+00  1.28500000e-01  5.42241022e-01  1.87100000e+01
  4.13300000e+00  1.20000000e+00  4.47572721e+00  4.19627876e+00
  2.98800046e+00  3.82700000e-01  8.78127282e-01  1.20900000e-01
  2.07977938e-01  1.09700000e+00  3.06825171e+00  3.18000000e-01
  3.51379844e-01  7.61000000e-01  1.06690522e+00  3.38700000e+01
  5.09500000e+00  1.15900000e+00  9.04334519e-01  1.63100455e+00
  2.40491525e+00  3.25800000e-01  1.08950276e+00  1.02700000e-01
  4.58345379e-01  1.40700000e+00  4.47045795e+00  3.88000000e-01
  8.93354953e-01  1.05700000e+00  2.87515071e+00]
ecpbas  = []


******** <class 'pyscf.scf.hf.RHF'> ********
method = RHF
initial guess = minao
damping factor = 0
level_shift factor = 0
DIIS = <class 'pyscf.scf.diis.CDIIS'>
diis_start_cycle = 1
diis_space = 8
SCF conv_tol = 1e-09
SCF conv_tol_grad = None
SCF max_cycles = 50
direct_scf = True
direct_scf_tol = 1e-13
chkfile to save SCF result = /burg/ccce/users/eav2136/projects/batteries/01_mp2/tmp/tmpgcwwjsnh
max_memory 700000 MB (current use 96 MB)
Set gradient conv threshold to 3.16228e-05
Nelec from initial guess = 57.99703459442471
E1 = -1165.6417862236262  E_coul = 458.41830326766825
init E= -373.332338274591
cond(S) = 22415.631131751736
    CPU time for initialize scf     89.47 sec, wall time      2.92 sec
  HOMO = -0.0913944554547902  LUMO = -0.0637250956993167
  mo_energy =
[-2.08425648e+01 -2.07937242e+01 -2.07927275e+01 -1.13785087e+01
 -1.13529117e+01 -1.13477925e+01 -2.49042446e+00 -2.47902310e+00
 -2.47885316e+00 -2.47881008e+00 -2.16789572e+00 -1.79430833e+00
 -1.65757998e+00 -1.33655140e+00 -1.05183115e+00 -8.99210040e-01
 -8.02542689e-01 -7.82636502e-01 -6.87427026e-01 -6.59117249e-01
 -6.19783024e-01 -5.69829317e-01 -4.99513940e-01 -4.91731724e-01
 -4.37071056e-01 -4.03962518e-01 -3.24456310e-01 -1.69781053e-01
 -9.13944555e-02 -6.37250957e-02 -9.62792301e-03  2.02416448e-02
  2.71100683e-02  2.88949246e-02  3.19582922e-02  3.77769023e-02
  4.61258696e-02  4.75392414e-02  5.92195050e-02  6.27424585e-02
  6.51032378e-02  7.10114036e-02  8.03624905e-02  9.83441749e-02
  1.02983903e-01  1.07608509e-01  1.10732291e-01  1.15675586e-01
  1.24213699e-01  1.28403704e-01  1.30886407e-01  1.34709712e-01
  1.43280317e-01  1.45092820e-01  1.46571257e-01  1.60721726e-01
  1.72521405e-01  1.80109558e-01  1.84991430e-01  1.87223509e-01
  1.94206573e-01  1.98592516e-01  2.14935729e-01  2.17043326e-01
  2.19218862e-01  2.23026162e-01  2.31460592e-01  2.38053887e-01
  2.44740981e-01  2.46100686e-01  2.51040327e-01  2.66216901e-01
  2.72879711e-01  2.75991574e-01  2.82356801e-01  2.92862702e-01
  3.03659425e-01  3.15083237e-01  3.27782796e-01  3.35910140e-01
  3.37855313e-01  3.45212656e-01  3.52954419e-01  3.75135924e-01
  3.83384208e-01  3.92405932e-01  3.94396489e-01  4.03793253e-01
  4.15612284e-01  4.27153020e-01  4.31392522e-01  4.44690270e-01
  4.52881065e-01  4.56329956e-01  4.59334784e-01  4.67075211e-01
  4.71901878e-01  4.78799236e-01  4.83826539e-01  4.96723825e-01
  5.08126574e-01  5.18656706e-01  5.35093469e-01  5.40626565e-01
  5.47438903e-01  5.51832851e-01  5.63509800e-01  5.90617065e-01
  5.96198783e-01  6.00069053e-01  6.09571655e-01  6.19343785e-01
  6.27341774e-01  6.35231281e-01  6.43447671e-01  6.58791060e-01
  6.64128318e-01  6.67868693e-01  6.73392060e-01  6.93667894e-01
  7.06399070e-01  7.12208692e-01  7.18874175e-01  7.23106267e-01
  7.24448482e-01  7.29315000e-01  7.32962002e-01  7.34071066e-01
  7.34244655e-01  7.36651052e-01  7.39093026e-01  7.43354366e-01
  7.50670185e-01  7.53115602e-01  7.54603949e-01  7.61173956e-01
  7.64420654e-01  7.72652035e-01  7.73563261e-01  7.80735986e-01
  7.88250441e-01  7.90032786e-01  7.91735950e-01  7.99255283e-01
  8.01738365e-01  8.10253945e-01  8.15406903e-01  8.21791527e-01
  8.30774280e-01  8.38289004e-01  8.56391345e-01  8.63328864e-01
  8.65533339e-01  8.89044712e-01  8.92701673e-01  8.96259724e-01
  9.10913541e-01  9.20773438e-01  9.31522931e-01  9.35732510e-01
  9.39186475e-01  9.46521725e-01  9.58087749e-01  9.67139038e-01
  9.76187804e-01  1.00776155e+00  1.02905337e+00  1.03354677e+00
  1.04009951e+00  1.05529167e+00  1.06112836e+00  1.08353455e+00
  1.09112028e+00  1.09816074e+00  1.10931730e+00  1.11669897e+00
  1.12238243e+00  1.19302236e+00  1.20174573e+00  1.22194967e+00
  1.24626515e+00  1.26134009e+00  1.28109210e+00  1.28665083e+00
  1.29038113e+00  1.30196242e+00  1.31575236e+00  1.38556495e+00
  1.41109851e+00  1.44008242e+00  1.46199725e+00  1.47982525e+00
  1.49003102e+00  1.51490896e+00  1.54842598e+00  1.57942921e+00
  1.58252676e+00  1.59964080e+00  1.65298321e+00  1.69343508e+00
  1.79067638e+00  1.81766774e+00  1.84471120e+00  1.86509406e+00
  1.91485141e+00  1.98066250e+00  2.01489110e+00  2.04866817e+00
  2.11572873e+00  2.17372603e+00  2.24284121e+00  2.26980902e+00
  2.29745198e+00  2.36284099e+00  2.42014130e+00  2.43302484e+00
  2.47454837e+00  2.51525516e+00  2.55627013e+00  2.61545929e+00
  2.62871855e+00  2.65677129e+00  2.70113927e+00  2.75559337e+00
  2.79136691e+00  2.79533285e+00  2.83863054e+00  2.86849766e+00
  2.87833541e+00  2.95682136e+00  2.99449360e+00  3.02433495e+00
  3.03417548e+00  3.04004405e+00  3.05280826e+00  3.11562404e+00
  3.12480280e+00  3.17721994e+00  3.18768422e+00  3.23384926e+00
  3.25976063e+00  3.27327269e+00  3.29968936e+00  3.31242522e+00
  3.33762018e+00  3.34832111e+00  3.37997307e+00  3.38653520e+00
  3.41554143e+00  3.46346805e+00  3.46825678e+00  3.50174327e+00
  3.51937336e+00  3.53595128e+00  3.60281489e+00  3.66632291e+00
  3.66641992e+00  3.68200759e+00  3.70699018e+00  3.75417781e+00
  3.77834497e+00  3.84278543e+00  3.86613132e+00  3.88920258e+00
  3.89774486e+00  3.94786457e+00  3.96320180e+00  4.02415120e+00
  4.03131938e+00  4.03769931e+00  4.06230798e+00  4.09368054e+00
  4.13915839e+00  4.23230016e+00  4.26297173e+00  4.26887287e+00
  4.29034726e+00  4.36115137e+00  4.38276463e+00  4.42059327e+00
  4.42428801e+00  4.48357689e+00  4.51817260e+00  4.52278338e+00
  4.56865219e+00  4.61359507e+00  4.64689400e+00  4.66104477e+00
  4.69869365e+00  4.77942122e+00  4.80670654e+00  4.93141632e+00
  4.98063377e+00  5.01632294e+00  5.03408603e+00  5.10459282e+00
  5.12152357e+00  5.27447331e+00  5.30880717e+00  5.36367767e+00
  5.40449226e+00  5.41949167e+00  5.42690121e+00  5.47510888e+00
  5.50436044e+00  5.50825852e+00  5.56955766e+00  5.64529200e+00
  5.70142923e+00  5.72969221e+00  5.81629571e+00  5.82605863e+00
  5.93751230e+00  5.94461191e+00  6.01814701e+00  6.04363126e+00
  6.09194759e+00  6.10778113e+00  6.13490480e+00  6.15926263e+00
  6.24343598e+00  6.33433471e+00  6.38011195e+00  6.40655576e+00
  6.41703851e+00  6.52479567e+00  6.58234493e+00  6.62289806e+00
  6.66446467e+00  6.74876634e+00  6.81896269e+00  6.85667108e+00
  6.86391836e+00  6.93928262e+00  6.99233809e+00  7.07803038e+00
  7.13436172e+00  7.19723070e+00  7.21602376e+00  7.23544864e+00
  7.26276591e+00  7.35808947e+00  7.39522326e+00  7.43792915e+00
  7.58025080e+00  7.67790880e+00  7.78943128e+00  7.86605161e+00
  7.99380394e+00  8.37152304e+00  1.08224519e+01  1.29667370e+01
  1.32071699e+01  1.39276739e+01  1.58336706e+01  1.70779300e+01]
E1 = -1165.5658185861325  E_coul = 461.5020015776591
cycle= 1 E= -370.172672327107  delta_E= 3.16  |g|= 0.923  |ddm|= 2.48
    CPU time for cycle= 1     16.16 sec, wall time      0.52 sec
diis-norm(errvec)=2.85578
diis-c [-8.15545321  1.        ]
  HOMO = -0.111329396537858  LUMO = -0.0215914576845895
  mo_energy =
[-2.06189007e+01 -2.06108734e+01 -2.02921986e+01 -1.16960852e+01
 -1.14564062e+01 -1.14533115e+01 -2.54270723e+00 -2.41863485e+00
 -2.41566416e+00 -2.36770669e+00 -1.70518528e+00 -1.52041323e+00
 -1.45843114e+00 -1.21163718e+00 -1.04675598e+00 -9.43843445e-01
 -8.86034444e-01 -8.27860411e-01 -7.95434663e-01 -7.25767095e-01
 -7.18477282e-01 -6.54181289e-01 -6.35083528e-01 -6.29229078e-01
 -5.44359388e-01 -4.94017490e-01 -4.58841543e-01 -1.58176405e-01
 -1.11329397e-01 -2.15914577e-02  1.72796427e-02  2.57882897e-02
  3.08217819e-02  4.46838625e-02  4.56425121e-02  5.01589778e-02
  5.39210607e-02  5.61925383e-02  6.74195558e-02  8.01539001e-02
  8.48393650e-02  9.11118912e-02  9.42590905e-02  1.00785453e-01
  1.10840645e-01  1.16275299e-01  1.17931607e-01  1.26757213e-01
  1.36302778e-01  1.46453342e-01  1.53761676e-01  1.57095020e-01
  1.60706843e-01  1.62102132e-01  1.64797630e-01  1.72152001e-01
  1.73713885e-01  1.77244362e-01  1.99788984e-01  2.04353793e-01
  2.10877782e-01  2.22108761e-01  2.26557029e-01  2.30073339e-01
  2.39912211e-01  2.52397662e-01  2.55278817e-01  2.61084341e-01
  2.63461210e-01  2.66419002e-01  2.74399177e-01  2.84806006e-01
  2.87909280e-01  2.90196926e-01  2.92327904e-01  2.97878973e-01
  3.14442757e-01  3.14989781e-01  3.33654418e-01  3.38453633e-01
  3.46112631e-01  3.51462274e-01  3.70314803e-01  3.79534554e-01
  3.99988805e-01  4.19548753e-01  4.22551700e-01  4.29738926e-01
  4.33912324e-01  4.45285103e-01  4.48592536e-01  4.58523816e-01
  4.61001367e-01  4.73631749e-01  4.75783200e-01  4.84640683e-01
  4.98017163e-01  5.03390799e-01  5.06015785e-01  5.18686595e-01
  5.24351972e-01  5.26610214e-01  5.35063508e-01  5.45102965e-01
  5.55599597e-01  5.79097875e-01  5.88238057e-01  5.93729905e-01
  5.97662510e-01  6.04101768e-01  6.14506224e-01  6.16175129e-01
  6.41276837e-01  6.45552385e-01  6.51396848e-01  6.66914084e-01
  6.87305470e-01  6.95214751e-01  7.01954484e-01  7.06536077e-01
  7.09507931e-01  7.11566670e-01  7.21339780e-01  7.28588137e-01
  7.32624923e-01  7.36131365e-01  7.43693352e-01  7.51541161e-01
  7.61431894e-01  7.68178145e-01  7.70305345e-01  7.78973326e-01
  7.82721184e-01  7.84809347e-01  7.89522354e-01  7.91537178e-01
  7.99680548e-01  8.01666436e-01  8.07701724e-01  8.11214808e-01
  8.14562067e-01  8.17849069e-01  8.21606071e-01  8.26952091e-01
  8.27931800e-01  8.32363730e-01  8.43984772e-01  8.52778868e-01
  8.67789487e-01  8.72603551e-01  8.87914016e-01  8.99503829e-01
  9.11504933e-01  9.20187217e-01  9.26540202e-01  9.30080214e-01
  9.38139512e-01  9.40700150e-01  9.52517183e-01  9.59110485e-01
  9.67503262e-01  9.79807618e-01  9.83073687e-01  9.91777458e-01
  9.95272082e-01  1.01372278e+00  1.02259646e+00  1.03151512e+00
  1.04945889e+00  1.06501059e+00  1.09090783e+00  1.10098052e+00
  1.11756378e+00  1.13723604e+00  1.15013079e+00  1.17692279e+00
  1.17843969e+00  1.18378207e+00  1.19373504e+00  1.20467515e+00
  1.21407180e+00  1.24180576e+00  1.25092346e+00  1.25915761e+00
  1.26494089e+00  1.27686345e+00  1.33362103e+00  1.36334732e+00
  1.38070595e+00  1.40161062e+00  1.44578669e+00  1.46183547e+00
  1.46747304e+00  1.51705306e+00  1.53019869e+00  1.53600847e+00
  1.55841977e+00  1.61123986e+00  1.66465215e+00  1.72490476e+00
  1.74695836e+00  1.80749165e+00  1.81356326e+00  1.87840794e+00
  1.94119005e+00  1.94511571e+00  2.02727563e+00  2.09896230e+00
  2.14330887e+00  2.19573306e+00  2.22132242e+00  2.26043669e+00
  2.30579573e+00  2.34755334e+00  2.40812832e+00  2.42756208e+00
  2.45983983e+00  2.48565915e+00  2.54413689e+00  2.57688041e+00
  2.60099045e+00  2.64093152e+00  2.65782266e+00  2.72776685e+00
  2.75613792e+00  2.77917143e+00  2.79541210e+00  2.80693605e+00
  2.87003237e+00  2.91796207e+00  2.93851242e+00  2.96702598e+00
  3.01052445e+00  3.02097913e+00  3.03486602e+00  3.06668026e+00
  3.09076354e+00  3.12019410e+00  3.13671439e+00  3.15080100e+00
  3.22226944e+00  3.22846616e+00  3.24269033e+00  3.25437470e+00
  3.26414586e+00  3.29551022e+00  3.32972560e+00  3.34904736e+00
  3.37811010e+00  3.39911002e+00  3.41731349e+00  3.47281861e+00
  3.48458103e+00  3.49033460e+00  3.54212887e+00  3.61250731e+00
  3.63291635e+00  3.65966007e+00  3.70255249e+00  3.70915231e+00
  3.73215079e+00  3.79839665e+00  3.81109212e+00  3.83979509e+00
  3.84424381e+00  3.90414539e+00  3.91260108e+00  3.97200184e+00
  3.99577132e+00  4.00934667e+00  4.03330789e+00  4.04208770e+00
  4.10315349e+00  4.19957861e+00  4.21980300e+00  4.24488808e+00
  4.24791123e+00  4.33598639e+00  4.34114838e+00  4.36987514e+00
  4.39169752e+00  4.44443043e+00  4.46122552e+00  4.47739610e+00
  4.59521473e+00  4.61704064e+00  4.63446144e+00  4.76082522e+00
  4.78364660e+00  4.79285761e+00  4.87911495e+00  4.89714138e+00
  4.95725968e+00  5.00251433e+00  5.03843193e+00  5.09721430e+00
  5.14350429e+00  5.27335055e+00  5.28421827e+00  5.34023217e+00
  5.38731623e+00  5.44604930e+00  5.46189847e+00  5.47582468e+00
  5.58437173e+00  5.65355538e+00  5.65453441e+00  5.69907776e+00
  5.70739513e+00  5.73481643e+00  5.80035658e+00  5.86849425e+00
  5.93769236e+00  5.97446668e+00  6.03170348e+00  6.05663104e+00
  6.09351542e+00  6.11903486e+00  6.17323550e+00  6.20661006e+00
  6.23127018e+00  6.35501919e+00  6.40105220e+00  6.41243806e+00
  6.42651803e+00  6.56865218e+00  6.59850182e+00  6.71792473e+00
  6.79661088e+00  6.83454602e+00  6.90162440e+00  7.06915415e+00
  7.07434152e+00  7.09971279e+00  7.15137162e+00  7.18382242e+00
  7.22945950e+00  7.27992254e+00  7.29939254e+00  7.35633479e+00
  7.43248085e+00  7.52435275e+00  7.53916801e+00  7.55017973e+00
  7.74854577e+00  7.75862934e+00  7.97526025e+00  8.00542988e+00
  8.06785225e+00  8.47171568e+00  1.08461608e+01  1.29991053e+01
  1.32598733e+01  1.39123742e+01  1.57407375e+01  1.71361980e+01]
E1 = -1166.9890613307075  E_coul = 462.79550716006094
cycle= 2 E= -370.30240948928  delta_E= -0.13  |g|= 0.548  |ddm|= 0.869
    CPU time for cycle= 2     14.38 sec, wall time      0.47 sec
diis-norm(errvec)=1.69313
diis-c [-0.69750171  0.3503592   0.6496408 ]
  HOMO = -0.123732812255381  LUMO = -0.0197814929310565
  mo_energy =
[-2.06428817e+01 -2.06397112e+01 -2.06297030e+01 -1.14447204e+01
 -1.13087296e+01 -1.13076834e+01 -2.52370244e+00 -2.43985259e+00
 -2.43579696e+00 -2.43178437e+00 -1.63569692e+00 -1.49581187e+00
 -1.46604459e+00 -1.13303451e+00 -9.85982736e-01 -8.96189873e-01
 -8.30631760e-01 -8.10507309e-01 -7.51436531e-01 -7.25081774e-01
 -6.88261767e-01 -6.76232062e-01 -6.04983097e-01 -5.81461386e-01
 -5.48038567e-01 -5.31880009e-01 -5.02060493e-01 -1.69329487e-01
 -1.23732812e-01 -1.97814929e-02  1.70717531e-02  2.90856406e-02
  3.22534188e-02  3.83521372e-02  4.24467521e-02  4.88824240e-02
  5.02217742e-02  5.57650558e-02  6.48791485e-02  7.59502201e-02
  7.95208597e-02  8.92266926e-02  9.63894922e-02  1.06907007e-01
  1.11869712e-01  1.14565063e-01  1.23806610e-01  1.28010357e-01
  1.40642024e-01  1.46037598e-01  1.53176451e-01  1.55823374e-01
  1.56344171e-01  1.66115711e-01  1.67973864e-01  1.75107918e-01
  1.80581715e-01  1.98362276e-01  2.00936964e-01  2.07260501e-01
  2.13217442e-01  2.19022709e-01  2.27500957e-01  2.35721506e-01
  2.37489354e-01  2.47631093e-01  2.48695191e-01  2.53052893e-01
  2.56031841e-01  2.61173229e-01  2.74069295e-01  2.83889755e-01
  2.87367097e-01  2.90251271e-01  3.00759585e-01  3.08186573e-01
  3.15361021e-01  3.21973269e-01  3.30668358e-01  3.38395185e-01
  3.46965183e-01  3.58478540e-01  3.72764272e-01  4.02739479e-01
  4.04699886e-01  4.16066560e-01  4.17809300e-01  4.27067725e-01
  4.33968627e-01  4.41363252e-01  4.46068392e-01  4.58970498e-01
  4.63024431e-01  4.74286157e-01  4.79350185e-01  4.89074606e-01
  5.06251523e-01  5.08020584e-01  5.14950116e-01  5.15927633e-01
  5.24615116e-01  5.34099235e-01  5.46272113e-01  5.49799135e-01
  5.54880636e-01  5.76796133e-01  5.84208000e-01  6.12364607e-01
  6.17841007e-01  6.30898650e-01  6.31706401e-01  6.39017849e-01
  6.53332564e-01  6.61774381e-01  6.71983785e-01  6.86450467e-01
  6.95742037e-01  6.99786259e-01  7.05374308e-01  7.10109308e-01
  7.17134726e-01  7.20745477e-01  7.24465935e-01  7.37146086e-01
  7.41099585e-01  7.42789549e-01  7.51988451e-01  7.55093880e-01
  7.56946180e-01  7.65990270e-01  7.68947029e-01  7.72234244e-01
  7.74459394e-01  7.78825490e-01  7.83144556e-01  7.86104421e-01
  7.89297837e-01  7.94856990e-01  7.98104141e-01  8.00437276e-01
  8.07913983e-01  8.11040223e-01  8.15542127e-01  8.19916109e-01
  8.25052149e-01  8.27595813e-01  8.40750712e-01  8.46710279e-01
  8.59859100e-01  8.65006154e-01  8.81859180e-01  8.87730102e-01
  8.92835469e-01  9.12940395e-01  9.21939723e-01  9.22542220e-01
  9.34988158e-01  9.36536161e-01  9.46509380e-01  9.57334147e-01
  9.63429880e-01  9.69186174e-01  9.78695332e-01  9.83944583e-01
  9.97971132e-01  1.01747715e+00  1.03877939e+00  1.04211783e+00
  1.06280018e+00  1.06396047e+00  1.07504445e+00  1.09751162e+00
  1.11442884e+00  1.11977848e+00  1.13999795e+00  1.15100053e+00
  1.16486554e+00  1.18900315e+00  1.21424889e+00  1.22859286e+00
  1.24018495e+00  1.26715219e+00  1.27727280e+00  1.28269710e+00
  1.29579921e+00  1.30464020e+00  1.33254627e+00  1.39056866e+00
  1.41357906e+00  1.43265533e+00  1.45745894e+00  1.48805524e+00
  1.49366840e+00  1.53763045e+00  1.54613412e+00  1.56771109e+00
  1.58319003e+00  1.64554370e+00  1.66031910e+00  1.70638776e+00
  1.79395311e+00  1.83898549e+00  1.85806515e+00  1.89127418e+00
  1.94679798e+00  1.99125471e+00  2.06618871e+00  2.07778577e+00
  2.14367136e+00  2.21418901e+00  2.26807669e+00  2.30385736e+00
  2.33526110e+00  2.38351287e+00  2.44301760e+00  2.46116003e+00
  2.49321004e+00  2.52070283e+00  2.58440131e+00  2.61783364e+00
  2.65424514e+00  2.66458170e+00  2.71864761e+00  2.77144958e+00
  2.81999671e+00  2.82824680e+00  2.83948283e+00  2.87134410e+00
  2.89394447e+00  2.96207655e+00  3.00052653e+00  3.03347778e+00
  3.03875506e+00  3.06337884e+00  3.06653530e+00  3.11885145e+00
  3.12642716e+00  3.18433444e+00  3.19911462e+00  3.23022002e+00
  3.28523464e+00  3.28616835e+00  3.30808504e+00  3.32184363e+00
  3.33898039e+00  3.34143666e+00  3.37478298e+00  3.40287195e+00
  3.43106801e+00  3.46208327e+00  3.47382667e+00  3.52929219e+00
  3.53031944e+00  3.54745804e+00  3.60736695e+00  3.67379331e+00
  3.68950344e+00  3.69797035e+00  3.73525307e+00  3.77073253e+00
  3.79225213e+00  3.85552841e+00  3.85873307e+00  3.89190569e+00
  3.89583796e+00  3.95909323e+00  3.96016997e+00  4.02512231e+00
  4.03902980e+00  4.05874153e+00  4.06664347e+00  4.08951081e+00
  4.15116835e+00  4.24239204e+00  4.26582152e+00  4.28702629e+00
  4.29042166e+00  4.37745566e+00  4.38681272e+00  4.42718212e+00
  4.43375778e+00  4.49178062e+00  4.51259584e+00  4.51802100e+00
  4.64906793e+00  4.66107959e+00  4.67834321e+00  4.68608824e+00
  4.75482239e+00  4.81786920e+00  4.83122221e+00  4.94869859e+00
  5.00478992e+00  5.05455246e+00  5.07812139e+00  5.14156158e+00
  5.14679255e+00  5.31645239e+00  5.33950757e+00  5.39300416e+00
  5.43835633e+00  5.46929489e+00  5.48260439e+00  5.52935981e+00
  5.57673457e+00  5.60328590e+00  5.60353253e+00  5.68556798e+00
  5.74388892e+00  5.75260681e+00  5.84965066e+00  5.87223724e+00
  5.98418962e+00  5.99639836e+00  6.08618419e+00  6.10756668e+00
  6.12213998e+00  6.14892044e+00  6.20011891e+00  6.21241089e+00
  6.28414687e+00  6.39464676e+00  6.44146979e+00  6.45047474e+00
  6.46881148e+00  6.59064851e+00  6.64011210e+00  6.71084820e+00
  6.78693408e+00  6.84152799e+00  6.90412079e+00  6.96125647e+00
  6.97879982e+00  7.03558334e+00  7.08988428e+00  7.18162034e+00
  7.22661849e+00  7.29887280e+00  7.31338710e+00  7.35279089e+00
  7.37998077e+00  7.45112323e+00  7.49731952e+00  7.53102486e+00
  7.71259644e+00  7.76761004e+00  7.89933925e+00  7.97057845e+00
  8.08074483e+00  8.45737338e+00  1.08721230e+01  1.30253509e+01
  1.32862176e+01  1.39663577e+01  1.58519540e+01  1.71268147e+01]
E1 = -1166.8109667669542  E_coul = 462.5681923355061
cycle= 3 E= -370.351629750081  delta_E= -0.0492  |g|= 0.0814  |ddm|= 0.265
    CPU time for cycle= 3     13.13 sec, wall time      0.41 sec
diis-norm(errvec)=0.249739
diis-c [-0.03793557 -0.06562441 -0.01608869  1.0817131 ]
  HOMO = -0.12661505815229  LUMO = -0.0152710445214354
  mo_energy =
[-2.06539606e+01 -2.06523729e+01 -2.05509005e+01 -1.14419523e+01
 -1.13007230e+01 -1.12996784e+01 -2.50764365e+00 -2.44715304e+00
 -2.44290450e+00 -2.43398934e+00 -1.63490118e+00 -1.47567963e+00
 -1.47012429e+00 -1.12651668e+00 -9.82136170e-01 -8.96044925e-01
 -8.28653531e-01 -8.00524673e-01 -7.45214311e-01 -7.14988091e-01
 -6.78892719e-01 -6.76626617e-01 -6.11913595e-01 -5.81446357e-01
 -5.32366432e-01 -5.20614887e-01 -5.02834358e-01 -1.67018358e-01
 -1.26615058e-01 -1.52710445e-02  1.94632373e-02  3.20096637e-02
  3.42648901e-02  3.83317661e-02  4.13310277e-02  4.78335471e-02
  5.04760722e-02  5.70021676e-02  6.54352956e-02  7.52775689e-02
  7.89805579e-02  8.99564010e-02  9.48123893e-02  1.10721326e-01
  1.14524427e-01  1.17779451e-01  1.28177033e-01  1.30092520e-01
  1.41192625e-01  1.44209835e-01  1.53855687e-01  1.57533821e-01
  1.57867990e-01  1.66024320e-01  1.70060286e-01  1.77570498e-01
  1.83440543e-01  2.00429038e-01  2.01600136e-01  2.12104768e-01
  2.18001041e-01  2.21666435e-01  2.30580080e-01  2.36976110e-01
  2.38578815e-01  2.46662612e-01  2.50854404e-01  2.52921419e-01
  2.54170808e-01  2.64941686e-01  2.73114590e-01  2.84442672e-01
  2.88798849e-01  2.90904616e-01  3.02759708e-01  3.10549703e-01
  3.16874502e-01  3.22419908e-01  3.31209744e-01  3.42073876e-01
  3.50889531e-01  3.58300091e-01  3.71758331e-01  4.01833983e-01
  4.06236677e-01  4.14950868e-01  4.22656149e-01  4.30213536e-01
  4.39261696e-01  4.42658191e-01  4.46930365e-01  4.64163033e-01
  4.68379095e-01  4.74993016e-01  4.79899570e-01  4.90183140e-01
  5.04755526e-01  5.05923068e-01  5.13514709e-01  5.18775005e-01
  5.26712320e-01  5.36728812e-01  5.47756630e-01  5.52413937e-01
  5.58154893e-01  5.76362271e-01  5.82577350e-01  6.14859466e-01
  6.20808507e-01  6.32448902e-01  6.35158457e-01  6.44947325e-01
  6.57538418e-01  6.65036054e-01  6.76399770e-01  6.91515244e-01
  6.98802655e-01  7.01404396e-01  7.07871666e-01  7.14612146e-01
  7.24778189e-01  7.27059579e-01  7.31466747e-01  7.43652610e-01
  7.45528838e-01  7.48935500e-01  7.54409728e-01  7.57936508e-01
  7.59029826e-01  7.65955893e-01  7.67796262e-01  7.71199268e-01
  7.73868655e-01  7.78052726e-01  7.83847523e-01  7.86029372e-01
  7.88344345e-01  7.93172204e-01  7.96435750e-01  7.99387801e-01
  8.07534299e-01  8.12213388e-01  8.15493873e-01  8.19384786e-01
  8.26160819e-01  8.27227122e-01  8.40577440e-01  8.49799303e-01
  8.62788178e-01  8.65409453e-01  8.81253659e-01  8.89848039e-01
  8.93360236e-01  9.13760560e-01  9.20478176e-01  9.22437475e-01
  9.35083695e-01  9.37037916e-01  9.49484393e-01  9.58401839e-01
  9.63828090e-01  9.67912559e-01  9.78826786e-01  9.85602560e-01
  1.00080243e+00  1.02275879e+00  1.04079004e+00  1.04482753e+00
  1.06689890e+00  1.06830398e+00  1.07901556e+00  1.09879953e+00
  1.11550518e+00  1.12001253e+00  1.14233431e+00  1.15088553e+00
  1.16536173e+00  1.19289127e+00  1.21850121e+00  1.23177058e+00
  1.24460869e+00  1.27111432e+00  1.28224336e+00  1.28712140e+00
  1.30151656e+00  1.30763781e+00  1.33697205e+00  1.39408194e+00
  1.41756849e+00  1.43609305e+00  1.46198263e+00  1.49014681e+00
  1.49753513e+00  1.54115920e+00  1.54975416e+00  1.57225468e+00
  1.58599855e+00  1.65028766e+00  1.66762241e+00  1.70996224e+00
  1.80172725e+00  1.84255196e+00  1.86316795e+00  1.89694087e+00
  1.95431435e+00  1.99282277e+00  2.06784921e+00  2.08651622e+00
  2.14663649e+00  2.21974457e+00  2.26604527e+00  2.30714797e+00
  2.33870561e+00  2.38916592e+00  2.44477152e+00  2.46407988e+00
  2.49715240e+00  2.52301999e+00  2.58878862e+00  2.62336960e+00
  2.65965159e+00  2.67097412e+00  2.72433744e+00  2.77824059e+00
  2.82378791e+00  2.83124063e+00  2.84437935e+00  2.87812520e+00
  2.89804407e+00  2.96638122e+00  3.00623389e+00  3.04012217e+00
  3.04432070e+00  3.05980064e+00  3.07075418e+00  3.12379221e+00
  3.13023195e+00  3.19114457e+00  3.20651482e+00  3.23556709e+00
  3.28923663e+00  3.29266866e+00  3.31464403e+00  3.32435624e+00
  3.34289769e+00  3.34676916e+00  3.37825874e+00  3.40798616e+00
  3.43832637e+00  3.46883325e+00  3.48002422e+00  3.53478227e+00
  3.53549474e+00  3.55138001e+00  3.61173465e+00  3.67822246e+00
  3.69611377e+00  3.70648953e+00  3.74587763e+00  3.77578664e+00
  3.79698550e+00  3.86202092e+00  3.86745018e+00  3.90066153e+00
  3.90255359e+00  3.96475414e+00  3.96868690e+00  4.03316479e+00
  4.04780227e+00  4.06608471e+00  4.07304855e+00  4.09702839e+00
  4.15975122e+00  4.25076674e+00  4.27544833e+00  4.29196526e+00
  4.29872078e+00  4.38644786e+00  4.39468239e+00  4.43453301e+00
  4.44421147e+00  4.49910403e+00  4.52128713e+00  4.52704113e+00
  4.65821982e+00  4.67659270e+00  4.68740983e+00  4.70794270e+00
  4.77545322e+00  4.82577783e+00  4.83597013e+00  4.95478651e+00
  5.01261228e+00  5.05946583e+00  5.08583870e+00  5.14861697e+00
  5.15858497e+00  5.32173971e+00  5.34424402e+00  5.40306405e+00
  5.44714977e+00  5.48129812e+00  5.48978159e+00  5.53850585e+00
  5.59903047e+00  5.61624991e+00  5.62530443e+00  5.69593121e+00
  5.75021115e+00  5.76024131e+00  5.85615337e+00  5.88091307e+00
  5.98714766e+00  6.00741824e+00  6.09197063e+00  6.12201800e+00
  6.12987037e+00  6.15249913e+00  6.20400004e+00  6.21881016e+00
  6.29004676e+00  6.39666912e+00  6.44310222e+00  6.45662792e+00
  6.47014640e+00  6.59586262e+00  6.64258474e+00  6.72241794e+00
  6.80457022e+00  6.84984305e+00  6.91330689e+00  6.98063251e+00
  7.00702141e+00  7.05218367e+00  7.10768083e+00  7.18724674e+00
  7.22783909e+00  7.30022480e+00  7.30841236e+00  7.35282572e+00
  7.40494076e+00  7.44991487e+00  7.50926109e+00  7.52747506e+00
  7.72855442e+00  7.76348615e+00  7.91327326e+00  7.97528560e+00
  8.07777311e+00  8.47106102e+00  1.08761327e+01  1.30365935e+01
  1.32809045e+01  1.39745356e+01  1.58590204e+01  1.71511329e+01]
E1 = -1166.7486626065715  E_coul = 462.50373111382316
cycle= 4 E= -370.353786811382  delta_E= -0.00216  |g|= 0.0355  |ddm|= 0.149
    CPU time for cycle= 4     13.09 sec, wall time      0.42 sec
diis-norm(errvec)=0.100015
diis-c [-0.00325013 -0.03554792 -0.04021623  0.31860042  0.75716372]
  HOMO = -0.127269413432477  LUMO = -0.0150681738735902
  mo_energy =
[-2.06401128e+01 -2.06400359e+01 -2.05781488e+01 -1.14476840e+01
 -1.13070434e+01 -1.13059944e+01 -2.50993675e+00 -2.44652089e+00
 -2.44197027e+00 -2.43456867e+00 -1.63417450e+00 -1.48391341e+00
 -1.46679338e+00 -1.12784127e+00 -9.81798539e-01 -8.94385135e-01
 -8.28502099e-01 -8.03639894e-01 -7.46474095e-01 -7.20029934e-01
 -6.82093255e-01 -6.75710612e-01 -6.08137326e-01 -5.82515562e-01
 -5.39223170e-01 -5.24527205e-01 -5.02039855e-01 -1.66742657e-01
 -1.27269413e-01 -1.50681739e-02  1.97089540e-02  3.18162290e-02
  3.41460594e-02  3.84970829e-02  4.12508531e-02  4.78250100e-02
  5.05311295e-02  5.69498370e-02  6.54684789e-02  7.54249049e-02
  7.91341427e-02  9.01035747e-02  9.48321496e-02  1.10598709e-01
  1.14441665e-01  1.17581894e-01  1.28109566e-01  1.29798934e-01
  1.41301689e-01  1.44446344e-01  1.53841557e-01  1.57571043e-01
  1.57877497e-01  1.66139983e-01  1.70042206e-01  1.77582921e-01
  1.83518261e-01  2.00475206e-01  2.01546713e-01  2.11901064e-01
  2.17110665e-01  2.21534251e-01  2.30601887e-01  2.36856687e-01
  2.38481863e-01  2.46763467e-01  2.50777115e-01  2.53063758e-01
  2.54254185e-01  2.64702793e-01  2.72931622e-01  2.84482427e-01
  2.88736536e-01  2.90906068e-01  3.02719502e-01  3.10481712e-01
  3.16799155e-01  3.22292625e-01  3.31144957e-01  3.42047856e-01
  3.50666493e-01  3.58253330e-01  3.71664406e-01  4.02011143e-01
  4.05801231e-01  4.15096374e-01  4.22078665e-01  4.30119712e-01
  4.38716366e-01  4.42401597e-01  4.46847399e-01  4.63633149e-01
  4.67904026e-01  4.74973345e-01  4.79793293e-01  4.89823015e-01
  5.04767026e-01  5.06124985e-01  5.13781674e-01  5.18064596e-01
  5.26358889e-01  5.36271211e-01  5.47734761e-01  5.51965222e-01
  5.57366068e-01  5.76250584e-01  5.82523426e-01  6.14535783e-01
  6.20424812e-01  6.32331829e-01  6.34906086e-01  6.44355592e-01
  6.57256043e-01  6.64831874e-01  6.75469114e-01  6.91143539e-01
  6.98804268e-01  7.01339146e-01  7.07934780e-01  7.14599553e-01
  7.24272378e-01  7.26530323e-01  7.30950043e-01  7.43309325e-01
  7.45144773e-01  7.48598145e-01  7.54523766e-01  7.57772299e-01
  7.58962904e-01  7.66348938e-01  7.68218171e-01  7.71685544e-01
  7.74109575e-01  7.78398521e-01  7.83908889e-01  7.86152737e-01
  7.88357409e-01  7.93451763e-01  7.96632259e-01  7.99532105e-01
  8.07723862e-01  8.12154840e-01  8.15468726e-01  8.19241827e-01
  8.25905081e-01  8.27005273e-01  8.40439272e-01  8.49105901e-01
  8.62123044e-01  8.65209197e-01  8.81006816e-01  8.89459643e-01
  8.92952621e-01  9.13560206e-01  9.20673201e-01  9.22419259e-01
  9.35373726e-01  9.36516085e-01  9.49194747e-01  9.58140478e-01
  9.63847353e-01  9.67539239e-01  9.78492464e-01  9.85299856e-01
  1.00016796e+00  1.02256111e+00  1.04003344e+00  1.04439174e+00
  1.06605245e+00  1.06695376e+00  1.07830885e+00  1.09865796e+00
  1.11545366e+00  1.11980375e+00  1.14171103e+00  1.15083760e+00
  1.16483160e+00  1.19206892e+00  1.21786661e+00  1.23081750e+00
  1.24362194e+00  1.27081881e+00  1.28166961e+00  1.28649857e+00
  1.29983873e+00  1.30715733e+00  1.33573435e+00  1.39324216e+00
  1.41645214e+00  1.43583335e+00  1.46085011e+00  1.49013841e+00
  1.49666473e+00  1.53984392e+00  1.54842369e+00  1.57172903e+00
  1.58656685e+00  1.64974979e+00  1.66500224e+00  1.70939886e+00
  1.80086634e+00  1.84107393e+00  1.86245406e+00  1.89531434e+00
  1.95162749e+00  1.99308436e+00  2.06809713e+00  2.08320676e+00
  2.14634517e+00  2.21825028e+00  2.26788149e+00  2.30658751e+00
  2.33806679e+00  2.38730430e+00  2.44385804e+00  2.46364244e+00
  2.49612353e+00  2.52233690e+00  2.58786060e+00  2.62141773e+00
  2.65816320e+00  2.66878476e+00  2.72262044e+00  2.77641708e+00
  2.82276915e+00  2.83047101e+00  2.84227447e+00  2.87633127e+00
  2.89661034e+00  2.96465449e+00  3.00370696e+00  3.03900362e+00
  3.04260378e+00  3.05985746e+00  3.06923074e+00  3.12219717e+00
  3.12877960e+00  3.18974424e+00  3.20469774e+00  3.23364235e+00
  3.28792552e+00  3.29102472e+00  3.31359453e+00  3.32328716e+00
  3.34072513e+00  3.34515667e+00  3.37650635e+00  3.40647948e+00
  3.43641535e+00  3.46700385e+00  3.47843558e+00  3.53415198e+00
  3.53512643e+00  3.55075567e+00  3.61083779e+00  3.67684451e+00
  3.69489912e+00  3.70420168e+00  3.74240614e+00  3.77487316e+00
  3.79595101e+00  3.86109377e+00  3.86707782e+00  3.89992439e+00
  3.90092837e+00  3.96437163e+00  3.96794405e+00  4.03241413e+00
  4.04686141e+00  4.06532878e+00  4.07168107e+00  4.09698618e+00
  4.15861922e+00  4.25052406e+00  4.27436124e+00  4.29329987e+00
  4.29855034e+00  4.38524015e+00  4.39474489e+00  4.43330402e+00
  4.44324693e+00  4.49925398e+00  4.52074204e+00  4.52701026e+00
  4.65647932e+00  4.67342148e+00  4.68492936e+00  4.70008546e+00
  4.76953342e+00  4.82468128e+00  4.83706038e+00  4.95376826e+00
  5.01255016e+00  5.05977981e+00  5.08543328e+00  5.14815640e+00
  5.15623592e+00  5.32205262e+00  5.34459756e+00  5.40186685e+00
  5.44656983e+00  5.47890358e+00  5.48949093e+00  5.53768629e+00
  5.59106952e+00  5.61370704e+00  5.61733924e+00  5.69461318e+00
  5.75016998e+00  5.75941733e+00  5.85634064e+00  5.87997085e+00
  5.98860558e+00  6.00519535e+00  6.09242993e+00  6.11804835e+00
  6.12894207e+00  6.15320604e+00  6.20485680e+00  6.21835251e+00
  6.29019152e+00  6.39829119e+00  6.44483514e+00  6.45676352e+00
  6.47213064e+00  6.59639349e+00  6.64372100e+00  6.71990540e+00
  6.80031845e+00  6.84898985e+00  6.91242288e+00  6.97414219e+00
  6.99747972e+00  7.04738565e+00  7.10253722e+00  7.18812120e+00
  7.23041053e+00  7.30308380e+00  7.31418327e+00  7.35651890e+00
  7.39641253e+00  7.45365486e+00  7.50683448e+00  7.53252898e+00
  7.72541126e+00  7.76858188e+00  7.90991927e+00  7.97660394e+00
  8.08227420e+00  8.46712205e+00  1.08763682e+01  1.30331357e+01
  1.32870726e+01  1.39720059e+01  1.58550977e+01  1.71413010e+01]
E1 = -1166.7858552756436  E_coul = 462.5405896749434
cycle= 5 E= -370.354120919334  delta_E= -0.000334  |g|= 0.00749  |ddm|= 0.0471
    CPU time for cycle= 5     13.13 sec, wall time      0.41 sec
diis-norm(errvec)=0.0245717
diis-c [-3.81146069e-04  4.87011610e-03 -1.00457294e-03 -9.00670691e-02
 -1.77014119e-02  1.10390294e+00]
  HOMO = -0.127467960291416  LUMO = -0.014819348109255
  mo_energy =
[-2.06441699e+01 -2.06440784e+01 -2.05770858e+01 -1.14468766e+01
 -1.13068933e+01 -1.13058412e+01 -2.51224313e+00 -2.44547126e+00
 -2.44054169e+00 -2.43400444e+00 -1.63463548e+00 -1.48326326e+00
 -1.46768435e+00 -1.12777801e+00 -9.82171887e-01 -8.94904223e-01
 -8.28733102e-01 -8.03458032e-01 -7.46653016e-01 -7.19896114e-01
 -6.81679473e-01 -6.76358009e-01 -6.09188609e-01 -5.82934387e-01
 -5.39020440e-01 -5.24132553e-01 -5.02729279e-01 -1.66119766e-01
 -1.27467960e-01 -1.48193481e-02  2.00272481e-02  3.17166126e-02
  3.41003020e-02  3.87489322e-02  4.13094594e-02  4.79839241e-02
  5.05802781e-02  5.69524950e-02  6.55188014e-02  7.56361354e-02
  7.93446786e-02  9.03351014e-02  9.49827358e-02  1.10623348e-01
  1.14499910e-01  1.17491443e-01  1.28201730e-01  1.29623289e-01
  1.41587223e-01  1.44906672e-01  1.53997121e-01  1.57746592e-01
  1.57963010e-01  1.66426570e-01  1.70126979e-01  1.77757623e-01
  1.83631304e-01  2.00730226e-01  2.01849067e-01  2.11816657e-01
  2.17355252e-01  2.21780246e-01  2.30646675e-01  2.37105513e-01
  2.38580816e-01  2.47111319e-01  2.51101685e-01  2.53458203e-01
  2.54531140e-01  2.64637103e-01  2.73219644e-01  2.84656361e-01
  2.88869090e-01  2.91096951e-01  3.02833729e-01  3.10491174e-01
  3.16880657e-01  3.22387649e-01  3.31271040e-01  3.42130575e-01
  3.50577297e-01  3.58538819e-01  3.72001133e-01  4.02543904e-01
  4.05986780e-01  4.15538184e-01  4.21973026e-01  4.30140001e-01
  4.38440722e-01  4.42675258e-01  4.47169627e-01  4.63318104e-01
  4.67599738e-01  4.75252840e-01  4.79964400e-01  4.90303599e-01
  5.05185894e-01  5.06724241e-01  5.14377027e-01  5.18364407e-01
  5.26515846e-01  5.36346486e-01  5.47885499e-01  5.52110135e-01
  5.57544789e-01  5.76632729e-01  5.82932590e-01  6.14708116e-01
  6.20598169e-01  6.32592106e-01  6.34823029e-01  6.44424284e-01
  6.57177940e-01  6.64893438e-01  6.75505822e-01  6.90937080e-01
  6.98886405e-01  7.01745153e-01  7.08150717e-01  7.14491169e-01
  7.23893423e-01  7.26071573e-01  7.30495878e-01  7.43011243e-01
  7.44965836e-01  7.48368182e-01  7.54731637e-01  7.57884607e-01
  7.59214910e-01  7.66863685e-01  7.68900899e-01  7.72512387e-01
  7.74642495e-01  7.78932957e-01  7.84254685e-01  7.86541140e-01
  7.88789310e-01  7.94075535e-01  7.97109923e-01  7.99991206e-01
  8.08130131e-01  8.12347135e-01  8.15715984e-01  8.19506580e-01
  8.26044265e-01  8.27173610e-01  8.40814519e-01  8.49077267e-01
  8.62164433e-01  8.65473007e-01  8.81385507e-01  8.89527741e-01
  8.93384394e-01  9.13843952e-01  9.21160880e-01  9.22667524e-01
  9.35683785e-01  9.36517441e-01  9.49091902e-01  9.58286418e-01
  9.64019257e-01  9.67861882e-01  9.78821150e-01  9.85392634e-01
  1.00008610e+00  1.02252400e+00  1.04037966e+00  1.04442849e+00
  1.06623359e+00  1.06715189e+00  1.07847098e+00  1.09870573e+00
  1.11581458e+00  1.12013018e+00  1.14262362e+00  1.15140834e+00
  1.16560084e+00  1.19224604e+00  1.21783570e+00  1.23096860e+00
  1.24369297e+00  1.27084917e+00  1.28161592e+00  1.28659645e+00
  1.30005189e+00  1.30718295e+00  1.33593113e+00  1.39345482e+00
  1.41645161e+00  1.43589068e+00  1.46106729e+00  1.49015054e+00
  1.49670570e+00  1.54013075e+00  1.54861920e+00  1.57177383e+00
  1.58636884e+00  1.64970227e+00  1.66546365e+00  1.70945907e+00
  1.80079802e+00  1.84118376e+00  1.86234611e+00  1.89545142e+00
  1.95181294e+00  1.99291034e+00  2.06789623e+00  2.08367511e+00
  2.14632890e+00  2.21835272e+00  2.26750874e+00  2.30651076e+00
  2.33789923e+00  2.38747808e+00  2.44402436e+00  2.46354169e+00
  2.49617735e+00  2.52229394e+00  2.58786760e+00  2.62171037e+00
  2.65824167e+00  2.66892352e+00  2.72259358e+00  2.77644490e+00
  2.82282755e+00  2.83042410e+00  2.84233547e+00  2.87626932e+00
  2.89670273e+00  2.96473695e+00  3.00378036e+00  3.03826767e+00
  3.04257761e+00  3.06068460e+00  3.06927852e+00  3.12225721e+00
  3.12884610e+00  3.18965195e+00  3.20447189e+00  3.23367008e+00
  3.28808220e+00  3.29078814e+00  3.31351126e+00  3.32343899e+00
  3.34094682e+00  3.34513721e+00  3.37650305e+00  3.40644430e+00
  3.43630028e+00  3.46704103e+00  3.47843583e+00  3.53394823e+00
  3.53490907e+00  3.55054510e+00  3.61066182e+00  3.67677915e+00
  3.69464510e+00  3.70431585e+00  3.74257770e+00  3.77455713e+00
  3.79586192e+00  3.86091654e+00  3.86699524e+00  3.89986499e+00
  3.90098361e+00  3.96408312e+00  3.96789054e+00  4.03240571e+00
  4.04676524e+00  4.06526492e+00  4.07162983e+00  4.09693073e+00
  4.15846520e+00  4.25038738e+00  4.27432858e+00  4.29283763e+00
  4.29845450e+00  4.38516713e+00  4.39452064e+00  4.43321949e+00
  4.44313299e+00  4.49892744e+00  4.52060655e+00  4.52699141e+00
  4.65639297e+00  4.67364307e+00  4.68487306e+00  4.70052320e+00
  4.76973666e+00  4.82426332e+00  4.83657921e+00  4.95344512e+00
  5.01219494e+00  5.05939293e+00  5.08505817e+00  5.14800776e+00
  5.15602430e+00  5.32163753e+00  5.34424354e+00  5.40170970e+00
  5.44630893e+00  5.47882150e+00  5.48911014e+00  5.53755600e+00
  5.59173933e+00  5.61367153e+00  5.61796943e+00  5.69440160e+00
  5.74980851e+00  5.75927222e+00  5.85594405e+00  5.87959100e+00
  5.98793903e+00  6.00509338e+00  6.09186822e+00  6.11815405e+00
  6.12877106e+00  6.15272465e+00  6.20418716e+00  6.21793021e+00
  6.28980124e+00  6.39746941e+00  6.44395926e+00  6.45627489e+00
  6.47130447e+00  6.59569515e+00  6.64294238e+00  6.71953735e+00
  6.80007297e+00  6.84834665e+00  6.91171326e+00  6.97441602e+00
  6.99799161e+00  7.04723831e+00  7.10251007e+00  7.18733143e+00
  7.22937544e+00  7.30201841e+00  7.31276407e+00  7.35536980e+00
  7.39706197e+00  7.45244280e+00  7.50659528e+00  7.53117239e+00
  7.72516886e+00  7.76719176e+00  7.90962583e+00  7.97569601e+00
  8.08096633e+00  8.46703692e+00  1.08757076e+01  1.30328709e+01
  1.32851462e+01  1.39716561e+01  1.58551399e+01  1.71418217e+01]
E1 = -1166.809396217946  E_coul = 462.5640552581999
cycle= 6 E= -370.35419627838  delta_E= -7.54e-05  |g|= 0.00311  |ddm|= 0.0381
    CPU time for cycle= 6     13.22 sec, wall time      0.42 sec
diis-norm(errvec)=0.0104077
diis-c [-5.98944517e-05  4.64705953e-03  5.27927072e-03 -3.30843997e-02
 -1.08753765e-01 -2.28533407e-02  1.15476518e+00]
  HOMO = -0.127729542638615  LUMO = -0.014595146566224
  mo_energy =
[-2.06421080e+01 -2.06420248e+01 -2.05764711e+01 -1.14460508e+01
 -1.13061438e+01 -1.13050972e+01 -2.51277535e+00 -2.44533630e+00
 -2.44010495e+00 -2.43445386e+00 -1.63374270e+00 -1.48278233e+00
 -1.46666100e+00 -1.12721505e+00 -9.81492502e-01 -8.94081449e-01
 -8.28119559e-01 -8.03037523e-01 -7.46127626e-01 -7.19497064e-01
 -6.81242591e-01 -6.75767967e-01 -6.08249862e-01 -5.82369906e-01
 -5.38830645e-01 -5.23567911e-01 -5.02181825e-01 -1.65867429e-01
 -1.27729543e-01 -1.45951466e-02  2.02103795e-02  3.17074046e-02
  3.41617582e-02  3.87622081e-02  4.13090328e-02  4.80182456e-02
  5.06136851e-02  5.69771993e-02  6.55624744e-02  7.56436944e-02
  7.93673955e-02  9.03754975e-02  9.49631161e-02  1.10754889e-01
  1.14501689e-01  1.17507578e-01  1.28246561e-01  1.29662229e-01
  1.41667187e-01  1.45005062e-01  1.54046768e-01  1.57850936e-01
  1.58054455e-01  1.66485680e-01  1.70306188e-01  1.77899001e-01
  1.83757638e-01  2.00745922e-01  2.01909390e-01  2.11918914e-01
  2.17635399e-01  2.21920780e-01  2.30795142e-01  2.37211242e-01
  2.38722303e-01  2.47162826e-01  2.51136828e-01  2.53560388e-01
  2.54582253e-01  2.64702129e-01  2.73251901e-01  2.84691959e-01
  2.88965944e-01  2.91184538e-01  3.02967899e-01  3.10651182e-01
  3.17048052e-01  3.22407871e-01  3.31306009e-01  3.42350657e-01
  3.50634845e-01  3.58558040e-01  3.72154573e-01  4.02576474e-01
  4.06223879e-01  4.15544492e-01  4.21906180e-01  4.30400534e-01
  4.38450840e-01  4.42742870e-01  4.47227082e-01  4.63317662e-01
  4.67619069e-01  4.75401966e-01  4.80063587e-01  4.90364587e-01
  5.05297050e-01  5.06945639e-01  5.14566816e-01  5.18376477e-01
  5.26689225e-01  5.36655634e-01  5.48142888e-01  5.52356716e-01
  5.57721898e-01  5.76657864e-01  5.83040722e-01  6.14776439e-01
  6.20799303e-01  6.32705013e-01  6.35128662e-01  6.44656054e-01
  6.57361361e-01  6.65041577e-01  6.75775108e-01  6.91072708e-01
  6.99013392e-01  7.01840756e-01  7.08385730e-01  7.14690550e-01
  7.23899657e-01  7.26050123e-01  7.30563680e-01  7.43056842e-01
  7.45002762e-01  7.48447176e-01  7.54878028e-01  7.57967324e-01
  7.59380997e-01  7.67168527e-01  7.69154022e-01  7.72800429e-01
  7.74845747e-01  7.79226822e-01  7.84346027e-01  7.86701019e-01
  7.89006255e-01  7.94252694e-01  7.97236102e-01  8.00207733e-01
  8.08291440e-01  8.12491124e-01  8.15822449e-01  8.19601548e-01
  8.26187540e-01  8.27229888e-01  8.40945836e-01  8.49185128e-01
  8.62139812e-01  8.65534249e-01  8.81369861e-01  8.89629121e-01
  8.93424178e-01  9.13944097e-01  9.21225616e-01  9.22796411e-01
  9.35886879e-01  9.36654851e-01  9.49189448e-01  9.58423635e-01
  9.64184825e-01  9.67995356e-01  9.78935632e-01  9.85425811e-01
  9.99978608e-01  1.02278464e+00  1.04049683e+00  1.04460487e+00
  1.06626879e+00  1.06729061e+00  1.07855679e+00  1.09896478e+00
  1.11593160e+00  1.12028429e+00  1.14271094e+00  1.15141425e+00
  1.16563806e+00  1.19251633e+00  1.21816794e+00  1.23128232e+00
  1.24397114e+00  1.27118009e+00  1.28194780e+00  1.28688078e+00
  1.30037444e+00  1.30753182e+00  1.33620055e+00  1.39373086e+00
  1.41688544e+00  1.43620234e+00  1.46134855e+00  1.49047621e+00
  1.49709607e+00  1.54036316e+00  1.54888568e+00  1.57209962e+00
  1.58677079e+00  1.65005976e+00  1.66557929e+00  1.70986882e+00
  1.80109993e+00  1.84155952e+00  1.86276860e+00  1.89585741e+00
  1.95216938e+00  1.99345800e+00  2.06844425e+00  2.08395632e+00
  2.14680857e+00  2.21879433e+00  2.26817448e+00  2.30701489e+00
  2.33844578e+00  2.38788902e+00  2.44453411e+00  2.46406536e+00
  2.49661892e+00  2.52283015e+00  2.58829826e+00  2.62209707e+00
  2.65864709e+00  2.66931941e+00  2.72306946e+00  2.77677669e+00
  2.82330931e+00  2.83094625e+00  2.84277385e+00  2.87667225e+00
  2.89691316e+00  2.96520307e+00  3.00418056e+00  3.03815815e+00
  3.04304199e+00  3.06096475e+00  3.06974902e+00  3.12268800e+00
  3.12933258e+00  3.19007463e+00  3.20498259e+00  3.23414364e+00
  3.28832338e+00  3.29124500e+00  3.31392842e+00  3.32369928e+00
  3.34135803e+00  3.34560493e+00  3.37705733e+00  3.40693048e+00
  3.43677317e+00  3.46747100e+00  3.47885864e+00  3.53448776e+00
  3.53535933e+00  3.55113671e+00  3.61117424e+00  3.67730011e+00
  3.69522865e+00  3.70470899e+00  3.74302814e+00  3.77513361e+00
  3.79637652e+00  3.86139146e+00  3.86730957e+00  3.90023348e+00
  3.90140309e+00  3.96461074e+00  3.96821929e+00  4.03273956e+00
  4.04714882e+00  4.06563267e+00  4.07211982e+00  4.09726636e+00
  4.15891561e+00  4.25076888e+00  4.27464426e+00  4.29337519e+00
  4.29881152e+00  4.38556967e+00  4.39495042e+00  4.43367561e+00
  4.44348122e+00  4.49938530e+00  4.52096057e+00  4.52726229e+00
  4.65685311e+00  4.67391936e+00  4.68538913e+00  4.70086866e+00
  4.77015432e+00  4.82487097e+00  4.83716150e+00  4.95401067e+00
  5.01267465e+00  5.05996567e+00  5.08561832e+00  5.14847329e+00
  5.15657767e+00  5.32228938e+00  5.34484332e+00  5.40209072e+00
  5.44674766e+00  5.47929844e+00  5.48966934e+00  5.53796573e+00
  5.59187807e+00  5.61406743e+00  5.61812918e+00  5.69484278e+00
  5.75040122e+00  5.75973178e+00  5.85651932e+00  5.88015035e+00
  5.98866883e+00  6.00555394e+00  6.09253506e+00  6.11864044e+00
  6.12926463e+00  6.15342253e+00  6.20501265e+00  6.21857623e+00
  6.29041237e+00  6.39830994e+00  6.44482340e+00  6.45691223e+00
  6.47213726e+00  6.59646822e+00  6.64378139e+00  6.72019721e+00
  6.80070108e+00  6.84912612e+00  6.91250196e+00  6.97482727e+00
  6.99831952e+00  7.04787335e+00  7.10315711e+00  7.18823161e+00
  7.23036354e+00  7.30298896e+00  7.31390002e+00  7.35640026e+00
  7.39728199e+00  7.45345290e+00  7.50725729e+00  7.53223741e+00
  7.72582327e+00  7.76823198e+00  7.91030206e+00  7.97657678e+00
  8.08198841e+00  8.46770019e+00  1.08766068e+01  1.30335844e+01
  1.32864444e+01  1.39724111e+01  1.58557687e+01  1.71424688e+01]
E1 = -1166.8010096443843  E_coul = 462.55565173802125
cycle= 7 E= -370.354213224997  delta_E= -1.69e-05  |g|= 0.00111  |ddm|= 0.019
    CPU time for cycle= 7     13.20 sec, wall time      0.41 sec
diis-norm(errvec)=0.00395003
diis-c [-8.87515830e-06 -5.85308903e-04  2.75415529e-05  1.27960532e-02
 -6.49832756e-03 -1.60000860e-01  5.53005238e-02  1.09896038e+00]
  HOMO = -0.127841554844211  LUMO = -0.0144925906066745
  mo_energy =
[-2.06424669e+01 -2.06424172e+01 -2.05770604e+01 -1.14460351e+01
 -1.13062945e+01 -1.13052464e+01 -2.51298030e+00 -2.44531400e+00
 -2.43992049e+00 -2.43451482e+00 -1.63391506e+00 -1.48300966e+00
 -1.46681972e+00 -1.12728409e+00 -9.81550862e-01 -8.94196030e-01
 -8.28205853e-01 -8.03185217e-01 -7.46164678e-01 -7.19661006e-01
 -6.81299508e-01 -6.75856424e-01 -6.08377759e-01 -5.82416662e-01
 -5.39093886e-01 -5.23704893e-01 -5.02253003e-01 -1.65765090e-01
 -1.27841555e-01 -1.44925906e-02  2.02876260e-02  3.16942396e-02
  3.41857139e-02  3.87655223e-02  4.13091476e-02  4.80355196e-02
  5.06198275e-02  5.69833549e-02  6.55771060e-02  7.56498007e-02
  7.93762504e-02  9.03933805e-02  9.49520000e-02  1.10795440e-01
  1.14508326e-01  1.17510283e-01  1.28265521e-01  1.29677469e-01
  1.41687668e-01  1.45042092e-01  1.54057563e-01  1.57895797e-01
  1.58090488e-01  1.66508307e-01  1.70347206e-01  1.77937197e-01
  1.83800409e-01  2.00759041e-01  2.01919118e-01  2.11952826e-01
  2.17590317e-01  2.21937601e-01  2.30836728e-01  2.37223934e-01
  2.38752390e-01  2.47184794e-01  2.51158791e-01  2.53595961e-01
  2.54602430e-01  2.64719298e-01  2.73251971e-01  2.84702866e-01
  2.89000117e-01  2.91213662e-01  3.02984986e-01  3.10668366e-01
  3.17085224e-01  3.22415420e-01  3.31319863e-01  3.42395288e-01
  3.50656283e-01  3.58547643e-01  3.72156143e-01  4.02599957e-01
  4.06222994e-01  4.15564848e-01  4.21897308e-01  4.30364573e-01
  4.38420100e-01  4.42758976e-01  4.47232847e-01  4.63297908e-01
  4.67612945e-01  4.75410581e-01  4.80063842e-01  4.90366082e-01
  5.05295825e-01  5.07011056e-01  5.14626162e-01  5.18346043e-01
  5.26697710e-01  5.36661650e-01  5.48163468e-01  5.52362206e-01
  5.57732900e-01  5.76656414e-01  5.83078335e-01  6.14776081e-01
  6.20806651e-01  6.32711746e-01  6.35097224e-01  6.44711477e-01
  6.57366452e-01  6.65048969e-01  6.75732335e-01  6.91052901e-01
  6.99014204e-01  7.01862846e-01  7.08400082e-01  7.14682726e-01
  7.23890816e-01  7.26010151e-01  7.30562419e-01  7.43065452e-01
  7.44989483e-01  7.48459996e-01  7.54892588e-01  7.57998173e-01
  7.59404643e-01  7.67215428e-01  7.69237298e-01  7.72903851e-01
  7.74915062e-01  7.79330910e-01  7.84363441e-01  7.86736653e-01
  7.89050033e-01  7.94330390e-01  7.97277123e-01  8.00266502e-01
  8.08336544e-01  8.12506897e-01  8.15852841e-01  8.19626131e-01
  8.26190949e-01  8.27209376e-01  8.40971088e-01  8.49139156e-01
  8.62110651e-01  8.65529292e-01  8.81369817e-01  8.89596840e-01
  8.93425352e-01  9.13933723e-01  9.21252951e-01  9.22779545e-01
  9.35883876e-01  9.36637582e-01  9.49185990e-01  9.58411793e-01
  9.64166861e-01  9.68013488e-01  9.78951716e-01  9.85438200e-01
  9.99937089e-01  1.02284775e+00  1.04047689e+00  1.04459761e+00
  1.06625705e+00  1.06726516e+00  1.07856167e+00  1.09892972e+00
  1.11595724e+00  1.12028760e+00  1.14274294e+00  1.15144480e+00
  1.16564597e+00  1.19254239e+00  1.21818461e+00  1.23127374e+00
  1.24398137e+00  1.27118859e+00  1.28196696e+00  1.28690966e+00
  1.30037365e+00  1.30752881e+00  1.33618025e+00  1.39372067e+00
  1.41684981e+00  1.43622743e+00  1.46135212e+00  1.49047906e+00
  1.49707541e+00  1.54034607e+00  1.54886301e+00  1.57212786e+00
  1.58679229e+00  1.65006547e+00  1.66549257e+00  1.70982839e+00
  1.80116118e+00  1.84150299e+00  1.86276933e+00  1.89578894e+00
  1.95208154e+00  1.99341791e+00  2.06839545e+00  2.08382642e+00
  2.14671970e+00  2.21871289e+00  2.26809056e+00  2.30695731e+00
  2.33837677e+00  2.38783218e+00  2.44445766e+00  2.46399028e+00
  2.49656990e+00  2.52276316e+00  2.58824509e+00  2.62206257e+00
  2.65862133e+00  2.66926884e+00  2.72302434e+00  2.77676085e+00
  2.82324583e+00  2.83086869e+00  2.84271444e+00  2.87666273e+00
  2.89689448e+00  2.96515777e+00  3.00412891e+00  3.03809580e+00
  3.04304236e+00  3.06102868e+00  3.06970704e+00  3.12267607e+00
  3.12933056e+00  3.19008241e+00  3.20496633e+00  3.23412463e+00
  3.28828798e+00  3.29124307e+00  3.31393437e+00  3.32368005e+00
  3.34132481e+00  3.34558821e+00  3.37700786e+00  3.40688219e+00
  3.43673884e+00  3.46746902e+00  3.47884881e+00  3.53445621e+00
  3.53535668e+00  3.55106856e+00  3.61115580e+00  3.67726002e+00
  3.69518485e+00  3.70466447e+00  3.74296356e+00  3.77509770e+00
  3.79634049e+00  3.86138745e+00  3.86737767e+00  3.90026681e+00
  3.90138993e+00  3.96459306e+00  3.96826972e+00  4.03278222e+00
  4.04717440e+00  4.06566820e+00  4.07205106e+00  4.09731402e+00
  4.15889912e+00  4.25079106e+00  4.27469337e+00  4.29336951e+00
  4.29885683e+00  4.38557396e+00  4.39497299e+00  4.43366748e+00
  4.44352073e+00  4.49940856e+00  4.52101048e+00  4.52733243e+00
  4.65682346e+00  4.67388836e+00  4.68534265e+00  4.70068845e+00
  4.76995849e+00  4.82477459e+00  4.83713373e+00  4.95397438e+00
  5.01268399e+00  5.05993757e+00  5.08555952e+00  5.14845130e+00
  5.15647305e+00  5.32222451e+00  5.34479424e+00  5.40210727e+00
  5.44676498e+00  5.47918378e+00  5.48960980e+00  5.53797578e+00
  5.59164297e+00  5.61403390e+00  5.61788263e+00  5.69481992e+00
  5.75033890e+00  5.75970684e+00  5.85648010e+00  5.88007263e+00
  5.98859472e+00  6.00547425e+00  6.09247351e+00  6.11846562e+00
  6.12924524e+00  6.15334437e+00  6.20483793e+00  6.21847627e+00
  6.29035486e+00  6.39817184e+00  6.44466892e+00  6.45684728e+00
  6.47202807e+00  6.59634663e+00  6.64364655e+00  6.72000810e+00
  6.80045972e+00  6.84891775e+00  6.91232807e+00  6.97456863e+00
  6.99801588e+00  7.04764798e+00  7.10293929e+00  7.18802368e+00
  7.23017770e+00  7.30279301e+00  7.31370426e+00  7.35620100e+00
  7.39699299e+00  7.45326483e+00  7.50703006e+00  7.53205973e+00
  7.72557534e+00  7.76805267e+00  7.91006527e+00  7.97635965e+00
  8.08180602e+00  8.46750392e+00  1.08764539e+01  1.30334161e+01
  1.32862245e+01  1.39722734e+01  1.58556715e+01  1.71422570e+01]
E1 = -1166.808138150562  E_coul = 462.5627772808252
cycle= 8 E= -370.35421618837  delta_E= -2.96e-06  |g|= 0.000353  |ddm|= 0.00732
    CPU time for cycle= 8     13.13 sec, wall time      0.41 sec
diis-norm(errvec)=0.00152109
diis-c [-1.29633684e-06 -5.12834866e-04 -6.88216525e-04  2.83234030e-03
  1.53181699e-02  3.04346748e-02 -1.54982791e-01 -2.48413424e-01
  1.35601208e+00]
  HOMO = -0.127851583290158  LUMO = -0.0144603398222315
  mo_energy =
[-2.06423381e+01 -2.06422864e+01 -2.05769910e+01 -1.14459610e+01
 -1.13062496e+01 -1.13052012e+01 -2.51319090e+00 -2.44526975e+00
 -2.43976701e+00 -2.43440162e+00 -1.63382693e+00 -1.48295262e+00
 -1.46673460e+00 -1.12722701e+00 -9.81488992e-01 -8.94121443e-01
 -8.28145988e-01 -8.03116634e-01 -7.46117277e-01 -7.19590439e-01
 -6.81247547e-01 -6.75801752e-01 -6.08281575e-01 -5.82349328e-01
 -5.39034824e-01 -5.23624940e-01 -5.02198836e-01 -1.65715061e-01
 -1.27851583e-01 -1.44603398e-02  2.03156273e-02  3.16796328e-02
  3.41862627e-02  3.87802027e-02  4.13248782e-02  4.80638465e-02
  5.06200427e-02  5.69813747e-02  6.55801431e-02  7.56727006e-02
  7.93939214e-02  9.04116415e-02  9.49678719e-02  1.10802311e-01
  1.14511930e-01  1.17500845e-01  1.28278102e-01  1.29667898e-01
  1.41709311e-01  1.45085067e-01  1.54064773e-01  1.57918343e-01
  1.58098934e-01  1.66542697e-01  1.70368725e-01  1.77957248e-01
  1.83811365e-01  2.00788707e-01  2.01963539e-01  2.11945477e-01
  2.17636531e-01  2.21971641e-01  2.30848271e-01  2.37256863e-01
  2.38768316e-01  2.47220756e-01  2.51189739e-01  2.53637014e-01
  2.54627808e-01  2.64718538e-01  2.73291042e-01  2.84715084e-01
  2.89016906e-01  2.91237792e-01  3.03012012e-01  3.10687716e-01
  3.17114211e-01  3.22437347e-01  3.31332923e-01  3.42417049e-01
  3.50651222e-01  3.58587094e-01  3.72206524e-01  4.02658412e-01
  4.06255742e-01  4.15613059e-01  4.21902962e-01  4.30394400e-01
  4.38397376e-01  4.42794505e-01  4.47269662e-01  4.63272218e-01
  4.67582963e-01  4.75443404e-01  4.80093434e-01  4.90433318e-01
  5.05331326e-01  5.07085626e-01  5.14689042e-01  5.18396844e-01
  5.26718539e-01  5.36703099e-01  5.48197920e-01  5.52402497e-01
  5.57772562e-01  5.76693198e-01  5.83136008e-01  6.14814156e-01
  6.20843537e-01  6.32753141e-01  6.35140061e-01  6.44733865e-01
  6.57389692e-01  6.65079208e-01  6.75766969e-01  6.91062427e-01
  6.99036943e-01  7.01906949e-01  7.08449427e-01  7.14692020e-01
  7.23862137e-01  7.25961645e-01  7.30535060e-01  7.43046559e-01
  7.44971191e-01  7.48440243e-01  7.54919532e-01  7.58007012e-01
  7.59438523e-01  7.67277120e-01  7.69295206e-01  7.72986627e-01
  7.74961568e-01  7.79405068e-01  7.84383980e-01  7.86773379e-01
  7.89113361e-01  7.94400436e-01  7.97321774e-01  8.00329451e-01
  8.08379042e-01  8.12542177e-01  8.15883837e-01  8.19661989e-01
  8.26219191e-01  8.27230397e-01  8.41027353e-01  8.49164489e-01
  8.62134478e-01  8.65579261e-01  8.81422257e-01  8.89627768e-01
  8.93478981e-01  9.13984117e-01  9.21313095e-01  9.22835298e-01
  9.35944139e-01  9.36666970e-01  9.49192739e-01  9.58443223e-01
  9.64210077e-01  9.68071591e-01  9.78997682e-01  9.85449729e-01
  9.99960574e-01  1.02287627e+00  1.04052778e+00  1.04463229e+00
  1.06629687e+00  1.06730637e+00  1.07859826e+00  1.09897852e+00
  1.11601456e+00  1.12035179e+00  1.14283405e+00  1.15151332e+00
  1.16573479e+00  1.19258714e+00  1.21822683e+00  1.23132260e+00
  1.24401873e+00  1.27123551e+00  1.28200052e+00  1.28694641e+00
  1.30041876e+00  1.30757134e+00  1.33622533e+00  1.39376959e+00
  1.41690084e+00  1.43627048e+00  1.46139237e+00  1.49052590e+00
  1.49712762e+00  1.54040643e+00  1.54891392e+00  1.57216247e+00
  1.58683140e+00  1.65010875e+00  1.66555522e+00  1.70988154e+00
  1.80118455e+00  1.84156053e+00  1.86281129e+00  1.89584824e+00
  1.95213834e+00  1.99347760e+00  2.06845649e+00  2.08389220e+00
  2.14678364e+00  2.21877707e+00  2.26815722e+00  2.30701717e+00
  2.33843199e+00  2.38789232e+00  2.44453033e+00  2.46405192e+00
  2.49662702e+00  2.52282874e+00  2.58830266e+00  2.62212415e+00
  2.65867636e+00  2.66932224e+00  2.72307986e+00  2.77680262e+00
  2.82330513e+00  2.83093052e+00  2.84276702e+00  2.87670183e+00
  2.89692617e+00  2.96521633e+00  3.00417399e+00  3.03803385e+00
  3.04308899e+00  3.06110659e+00  3.06976656e+00  3.12272792e+00
  3.12938924e+00  3.19012755e+00  3.20501404e+00  3.23417780e+00
  3.28835361e+00  3.29128485e+00  3.31398068e+00  3.32374788e+00
  3.34138838e+00  3.34564330e+00  3.37707382e+00  3.40694016e+00
  3.43678911e+00  3.46751764e+00  3.47889593e+00  3.53451184e+00
  3.53540242e+00  3.55113061e+00  3.61121028e+00  3.67731938e+00
  3.69524184e+00  3.70472012e+00  3.74302534e+00  3.77515229e+00
  3.79639737e+00  3.86143451e+00  3.86741050e+00  3.90030501e+00
  3.90144487e+00  3.96464424e+00  3.96830388e+00  4.03282057e+00
  4.04721341e+00  4.06570665e+00  4.07211337e+00  4.09734993e+00
  4.15894698e+00  4.25082972e+00  4.27472665e+00  4.29341714e+00
  4.29889080e+00  4.38561521e+00  4.39501353e+00  4.43371420e+00
  4.44355254e+00  4.49944719e+00  4.52104216e+00  4.52736223e+00
  4.65686678e+00  4.67392634e+00  4.68539684e+00  4.70074256e+00
  4.77001650e+00  4.82483301e+00  4.83718672e+00  4.95402472e+00
  5.01272574e+00  5.05999029e+00  5.08561581e+00  5.14850127e+00
  5.15653284e+00  5.32228341e+00  5.34485370e+00  5.40214327e+00
  5.44680265e+00  5.47924564e+00  5.48966355e+00  5.53801480e+00
  5.59169681e+00  5.61407688e+00  5.61793869e+00  5.69486504e+00
  5.75039785e+00  5.75975669e+00  5.85653459e+00  5.88012973e+00
  5.98866086e+00  6.00552856e+00  6.09253370e+00  6.11853512e+00
  6.12929191e+00  6.15341105e+00  6.20492172e+00  6.21854147e+00
  6.29041545e+00  6.39825480e+00  6.44475129e+00  6.45690851e+00
  6.47210328e+00  6.59641677e+00  6.64372576e+00  6.72008167e+00
  6.80053326e+00  6.84899958e+00  6.91240067e+00  6.97464485e+00
  6.99808404e+00  7.04772477e+00  7.10301487e+00  7.18810882e+00
  7.23026377e+00  7.30288533e+00  7.31379844e+00  7.35628927e+00
  7.39707376e+00  7.45335624e+00  7.50711896e+00  7.53215214e+00
  7.72565774e+00  7.76814013e+00  7.91015063e+00  7.97644882e+00
  8.08189256e+00  8.46758109e+00  1.08765333e+01  1.30334804e+01
  1.32863265e+01  1.39723364e+01  1.58557180e+01  1.71423281e+01]
E1 = -1166.8081757219675  E_coul = 462.5628142652613
cycle= 9 E= -370.35421677534  delta_E= -5.87e-07  |g|= 0.000134  |ddm|= 0.00288
    CPU time for cycle= 9     13.71 sec, wall time      0.44 sec
diis-norm(errvec)=0.000602953
diis-c [-2.17555394e-07  1.34771335e+00 -4.22471611e-05 -7.34574565e-04
  3.87160198e-04  7.77875946e-03  1.70952389e-02 -6.12262290e-02
 -3.10971461e-01]
  HOMO = -0.127856404327193  LUMO = -0.014454507400512
  mo_energy =
[-2.06423493e+01 -2.06423040e+01 -2.05770068e+01 -1.14459659e+01
 -1.13062350e+01 -1.13051876e+01 -2.51327075e+00 -2.44529171e+00
 -2.43970834e+00 -2.43439708e+00 -1.63383264e+00 -1.48295476e+00
 -1.46673952e+00 -1.12722282e+00 -9.81485959e-01 -8.94121214e-01
 -8.28144781e-01 -8.03120064e-01 -7.46112767e-01 -7.19595015e-01
 -6.81244762e-01 -6.75799403e-01 -6.08281737e-01 -5.82342799e-01
 -5.39037238e-01 -5.23625500e-01 -5.02195957e-01 -1.65712661e-01
 -1.27856404e-01 -1.44545074e-02  2.03160352e-02  3.16681646e-02
  3.41834422e-02  3.87760943e-02  4.13315487e-02  4.80726938e-02
  5.06137843e-02  5.69774724e-02  6.55786681e-02  7.56766035e-02
  7.93949362e-02  9.04108863e-02  9.49705960e-02  1.10800865e-01
  1.14503456e-01  1.17493319e-01  1.28276225e-01  1.29658108e-01
  1.41707150e-01  1.45094026e-01  1.54058555e-01  1.57924248e-01
  1.58096501e-01  1.66551288e-01  1.70371181e-01  1.77958867e-01
  1.83812000e-01  2.00786360e-01  2.01967716e-01  2.11936295e-01
  2.17633190e-01  2.21971512e-01  2.30848637e-01  2.37263234e-01
  2.38766712e-01  2.47225172e-01  2.51188310e-01  2.53644238e-01
  2.54629113e-01  2.64711372e-01  2.73296829e-01  2.84710352e-01
  2.89017436e-01  2.91241293e-01  3.03014558e-01  3.10686643e-01
  3.17119690e-01  3.22437754e-01  3.31329918e-01  3.42419844e-01
  3.50642056e-01  3.58588634e-01  3.72212686e-01  4.02666379e-01
  4.06254359e-01  4.15615926e-01  4.21892161e-01  4.30391041e-01
  4.38379305e-01  4.42796725e-01  4.47267925e-01  4.63253793e-01
  4.67561113e-01  4.75439989e-01  4.80094343e-01  4.90439496e-01
  5.05323471e-01  5.07105684e-01  5.14704144e-01  5.18396329e-01
  5.26713598e-01  5.36708802e-01  5.48203051e-01  5.52403915e-01
  5.57776679e-01  5.76687801e-01  5.83152848e-01  6.14814213e-01
  6.20844897e-01  6.32752513e-01  6.35138509e-01  6.44740795e-01
  6.57387161e-01  6.65077501e-01  6.75763280e-01  6.91051734e-01
  6.99028676e-01  7.01904153e-01  7.08449893e-01  7.14682438e-01
  7.23840473e-01  7.25931287e-01  7.30518482e-01  7.43032880e-01
  7.44947742e-01  7.48421958e-01  7.54912681e-01  7.57997686e-01
  7.59435916e-01  7.67282111e-01  7.69298880e-01  7.73006017e-01
  7.74961145e-01  7.79426872e-01  7.84376743e-01  7.86771729e-01
  7.89124576e-01  7.94416028e-01  7.97326548e-01  8.00342892e-01
  8.08383129e-01  8.12541915e-01  8.15884221e-01  8.19668516e-01
  8.26213790e-01  8.27221098e-01  8.41035660e-01  8.49158123e-01
  8.62126217e-01  8.65578750e-01  8.81425540e-01  8.89622748e-01
  8.93481092e-01  9.13986177e-01  9.21320324e-01  9.22836703e-01
  9.35952238e-01  9.36663595e-01  9.49182539e-01  9.58440137e-01
  9.64210386e-01  9.68083311e-01  9.79001270e-01  9.85443049e-01
  9.99954775e-01  1.02288181e+00  1.04052847e+00  1.04463037e+00
  1.06629633e+00  1.06730630e+00  1.07859481e+00  1.09897763e+00
  1.11602037e+00  1.12035628e+00  1.14284078e+00  1.15151700e+00
  1.16574001e+00  1.19259228e+00  1.21823103e+00  1.23132354e+00
  1.24402323e+00  1.27123687e+00  1.28200654e+00  1.28695178e+00
  1.30042369e+00  1.30757363e+00  1.33622819e+00  1.39377222e+00
  1.41690300e+00  1.43627435e+00  1.46139660e+00  1.49052893e+00
  1.49712967e+00  1.54040973e+00  1.54891627e+00  1.57216731e+00
  1.58683611e+00  1.65011267e+00  1.66555307e+00  1.70988249e+00
  1.80119244e+00  1.84155946e+00  1.86281641e+00  1.89584857e+00
  1.95213842e+00  1.99347864e+00  2.06845780e+00  2.08389000e+00
  2.14678251e+00  2.21877684e+00  2.26815619e+00  2.30701680e+00
  2.33843569e+00  2.38789131e+00  2.44452857e+00  2.46405282e+00
  2.49662907e+00  2.52282856e+00  2.58830381e+00  2.62212583e+00
  2.65867656e+00  2.66932602e+00  2.72308283e+00  2.77680515e+00
  2.82330579e+00  2.83092994e+00  2.84276850e+00  2.87670483e+00
[...]
  4.77001547e+00  4.82483080e+00  4.83718505e+00  4.95402468e+00
  5.01272599e+00  5.05998916e+00  5.08561410e+00  5.14850100e+00
  5.15653096e+00  5.32228072e+00  5.34485110e+00  5.40214461e+00
  5.44680364e+00  5.47924259e+00  5.48966261e+00  5.53801609e+00
  5.59169802e+00  5.61407775e+00  5.61793951e+00  5.69486487e+00
  5.75039581e+00  5.75975632e+00  5.85653205e+00  5.88012792e+00
  5.98865719e+00  6.00552759e+00  6.09253050e+00  6.11853138e+00
  6.12929232e+00  6.15340747e+00  6.20491487e+00  6.21853796e+00
  6.29041217e+00  6.39824782e+00  6.44474474e+00  6.45690504e+00
  6.47209775e+00  6.59641299e+00  6.64371903e+00  6.72007767e+00
  6.80052919e+00  6.84899308e+00  6.91239613e+00  6.97464107e+00
  6.99808189e+00  7.04772152e+00  7.10301082e+00  7.18810065e+00
  7.23025602e+00  7.30287582e+00  7.31378923e+00  7.35628153e+00
  7.39707212e+00  7.45334798e+00  7.50711118e+00  7.53214341e+00
  7.72565293e+00  7.76813165e+00  7.91014490e+00  7.97644030e+00
  8.08188441e+00  8.46757573e+00  1.08765265e+01  1.30334784e+01
  1.32863139e+01  1.39723349e+01  1.58557229e+01  1.71423239e+01]
E1 = -1166.8082639695895  E_coul = 462.5629023870384
cycle= 12 E= -370.354216901185  delta_E= -3.32e-09  |g|= 1.61e-05  |ddm|= 0.00018
    CPU time for cycle= 12     13.10 sec, wall time      0.41 sec
diis-norm(errvec)=6.3039e-05
diis-c [-2.37442802e-09  8.82035259e-02 -3.95071223e-01  1.35601706e-01
  1.15766859e+00  9.32670296e-04 -1.15530939e-03 -1.02225488e-02
  2.40425940e-02]
  HOMO = -0.127853568003705  LUMO = -0.0144529087721652
  mo_energy =
[-2.06423584e+01 -2.06423075e+01 -2.05769890e+01 -1.14459721e+01
 -1.13062431e+01 -1.13051953e+01 -2.51331817e+00 -2.44532938e+00
 -2.43966341e+00 -2.43438101e+00 -1.63383589e+00 -1.48295045e+00
 -1.46674436e+00 -1.12722821e+00 -9.81492394e-01 -8.94127428e-01
 -8.28148737e-01 -8.03120002e-01 -7.46117389e-01 -7.19594515e-01
 -6.81247045e-01 -6.75803990e-01 -6.08290104e-01 -5.82351345e-01
 -5.39030265e-01 -5.23625711e-01 -5.02201028e-01 -1.65714282e-01
 -1.27853568e-01 -1.44529088e-02  2.03115072e-02  3.16586806e-02
  3.41809386e-02  3.87731937e-02  4.13364053e-02  4.80785601e-02
  5.06074458e-02  5.69739213e-02  6.55765165e-02  7.56789801e-02
  7.93967835e-02  9.04114678e-02  9.49729291e-02  1.10795499e-01
  1.14497375e-01  1.17489310e-01  1.28275068e-01  1.29649891e-01
  1.41702328e-01  1.45099352e-01  1.54050994e-01  1.57929672e-01
  1.58092510e-01  1.66555226e-01  1.70367058e-01  1.77957493e-01
  1.83808074e-01  2.00786254e-01  2.01970497e-01  2.11928640e-01
  2.17631778e-01  2.21970453e-01  2.30844343e-01  2.37267147e-01
  2.38761740e-01  2.47226900e-01  2.51188821e-01  2.53646353e-01
  2.54628973e-01  2.64705507e-01  2.73301096e-01  2.84705102e-01
  2.89017328e-01  2.91242688e-01  3.03012394e-01  3.10681251e-01
  3.17117795e-01  3.22436187e-01  3.31326151e-01  3.42415329e-01
  3.50635123e-01  3.58590469e-01  3.72216112e-01  4.02670971e-01
  4.06250752e-01  4.15619011e-01  4.21889601e-01  4.30386661e-01
  4.38365954e-01  4.42798466e-01  4.47266381e-01  4.63241330e-01
  4.67542527e-01  4.75433268e-01  4.80093922e-01  4.90446419e-01
  5.05309495e-01  5.07119109e-01  5.14713665e-01  5.18399341e-01
  5.26703252e-01  5.36708377e-01  5.48201863e-01  5.52400859e-01
  5.57775296e-01  5.76679676e-01  5.83165826e-01  6.14813587e-01
  6.20842223e-01  6.32750219e-01  6.35135269e-01  6.44736648e-01
  6.57381153e-01  6.65073809e-01  6.75757471e-01  6.91044565e-01
  6.99020428e-01  7.01900423e-01  7.08451097e-01  7.14673303e-01
  7.23826912e-01  7.25906864e-01  7.30508966e-01  7.43025375e-01
  7.44926836e-01  7.48407222e-01  7.54905041e-01  7.57989547e-01
  7.59432493e-01  7.67279946e-01  7.69293121e-01  7.73019043e-01
  7.74952393e-01  7.79439427e-01  7.84368312e-01  7.86765557e-01
  7.89129250e-01  7.94426199e-01  7.97326532e-01  8.00349401e-01
  8.08383327e-01  8.12540373e-01  8.15880989e-01  8.19674911e-01
  8.26203816e-01  8.27210259e-01  8.41041181e-01  8.49153022e-01
  8.62121430e-01  8.65577291e-01  8.81428649e-01  8.89618329e-01
  8.93482803e-01  9.13989501e-01  9.21324103e-01  9.22837109e-01
  9.35955971e-01  9.36660027e-01  9.49173730e-01  9.58433795e-01
  9.64206847e-01  9.68091884e-01  9.79000881e-01  9.85438160e-01
  9.99955066e-01  1.02287675e+00  1.04052894e+00  1.04462695e+00
  1.06629795e+00  1.06730597e+00  1.07859052e+00  1.09897615e+00
  1.11602057e+00  1.12035773e+00  1.14284728e+00  1.15152135e+00
  1.16574634e+00  1.19259037e+00  1.21822760e+00  1.23132101e+00
  1.24401988e+00  1.27123294e+00  1.28200192e+00  1.28694874e+00
  1.30042007e+00  1.30756933e+00  1.33622677e+00  1.39376947e+00
  1.41689935e+00  1.43627034e+00  1.46139330e+00  1.49052549e+00
  1.49712683e+00  1.54041043e+00  1.54891485e+00  1.57216265e+00
  1.58683095e+00  1.65010902e+00  1.66555674e+00  1.70987949e+00
  1.80118676e+00  1.84155682e+00  1.86281141e+00  1.89584669e+00
  1.95213803e+00  1.99347409e+00  2.06845307e+00  2.08389242e+00
  2.14678022e+00  2.21877565e+00  2.26815054e+00  2.30701342e+00
  2.33843110e+00  2.38788910e+00  2.44452652e+00  2.46404944e+00
  2.49662520e+00  2.52282491e+00  2.58830008e+00  2.62212368e+00
  2.65867276e+00  2.66932314e+00  2.72307783e+00  2.77680022e+00
  2.82330156e+00  2.83092527e+00  2.84276299e+00  2.87669847e+00
  2.89691727e+00  2.96521136e+00  3.00416353e+00  3.03798284e+00
  3.04309242e+00  3.06111843e+00  3.06976448e+00  3.12272539e+00
  3.12939537e+00  3.19012640e+00  3.20501289e+00  3.23417666e+00
  3.28835548e+00  3.29128498e+00  3.31397958e+00  3.32375069e+00
  3.34138598e+00  3.34564051e+00  3.37706926e+00  3.40693773e+00
  3.43678767e+00  3.46751667e+00  3.47889671e+00  3.53450961e+00
  3.53540120e+00  3.55112738e+00  3.61120740e+00  3.67731643e+00
  3.69523798e+00  3.70471826e+00  3.74302386e+00  3.77514997e+00
  3.79639433e+00  3.86143260e+00  3.86741047e+00  3.90030487e+00
  3.90144266e+00  3.96464155e+00  3.96830425e+00  4.03282039e+00
  4.04721345e+00  4.06570681e+00  4.07210982e+00  4.09734970e+00
  4.15894466e+00  4.25082913e+00  4.27472702e+00  4.29341502e+00
  4.29889102e+00  4.38561495e+00  4.39501255e+00  4.43371303e+00
  4.44355296e+00  4.49944667e+00  4.52104291e+00  4.52736335e+00
  4.65686677e+00  4.67392866e+00  4.68539452e+00  4.70074428e+00
  4.77001618e+00  4.82483015e+00  4.83718399e+00  4.95402324e+00
  5.01272482e+00  5.05998783e+00  5.08561318e+00  5.14849971e+00
  5.15653062e+00  5.32227955e+00  5.34484966e+00  5.40214347e+00
  5.44680242e+00  5.47924244e+00  5.48966153e+00  5.53801485e+00
  5.59169936e+00  5.61407692e+00  5.61794090e+00  5.69486401e+00
  5.75039467e+00  5.75975509e+00  5.85653078e+00  5.88012729e+00
  5.98865593e+00  6.00552698e+00  6.09252926e+00  6.11853144e+00
  6.12929085e+00  6.15340596e+00  6.20491399e+00  6.21853703e+00
  6.29041083e+00  6.39824668e+00  6.44474363e+00  6.45690389e+00
  6.47209654e+00  6.59641224e+00  6.64371802e+00  6.72007754e+00
  6.80052975e+00  6.84899252e+00  6.91239580e+00  6.97464198e+00
  6.99808372e+00  7.04772197e+00  7.10301118e+00  7.18810027e+00
  7.23025549e+00  7.30287555e+00  7.31378775e+00  7.35628092e+00
  7.39707371e+00  7.45334731e+00  7.50711120e+00  7.53214263e+00
  7.72565336e+00  7.76813087e+00  7.91014529e+00  7.97644015e+00
  8.08188347e+00  8.46757574e+00  1.08765258e+01  1.30334779e+01
  1.32863128e+01  1.39723338e+01  1.58557209e+01  1.71423246e+01]
E1 = -1166.8082434550342  E_coul = 462.56288187129275
cycle= 13 E= -370.354216902375  delta_E= -1.19e-09  |g|= 7.8e-06  |ddm|= 0.000121
    CPU time for cycle= 13     13.16 sec, wall time      0.41 sec
diis-norm(errvec)=3.12869e-05
diis-c [-5.02993821e-10  3.75237739e-02  6.30043950e-02 -3.59507876e-01
 -1.44305066e-01  1.41785926e+00  1.01289069e-03 -2.11135444e-03
 -1.34760247e-02]
  HOMO = -0.127853591002236  LUMO = -0.0144531091693704
  mo_energy =
[-2.06423562e+01 -2.06423075e+01 -2.05769930e+01 -1.14459714e+01
 -1.13062441e+01 -1.13051963e+01 -2.51331846e+00 -2.44533445e+00
 -2.43965941e+00 -2.43438114e+00 -1.63383567e+00 -1.48295157e+00
 -1.46674399e+00 -1.12722838e+00 -9.81492288e-01 -8.94127249e-01
 -8.28148689e-01 -8.03120458e-01 -7.46117536e-01 -7.19595006e-01
 -6.81247406e-01 -6.75803922e-01 -6.08289670e-01 -5.82351364e-01
 -5.39031238e-01 -5.23626301e-01 -5.02200908e-01 -1.65714566e-01
 -1.27853591e-01 -1.44531092e-02  2.03112302e-02  3.16581988e-02
  3.41811267e-02  3.87730744e-02  4.13364037e-02  4.80788516e-02
  5.06070132e-02  5.69737476e-02  6.55764485e-02  7.56789203e-02
  7.93967718e-02  9.04114491e-02  9.49728207e-02  1.10795391e-01
  1.14497230e-01  1.17489357e-01  1.28275080e-01  1.29649505e-01
  1.41701646e-01  1.45099432e-01  1.54050280e-01  1.57930426e-01
  1.58092350e-01  1.66555157e-01  1.70366879e-01  1.77957613e-01
  1.83808005e-01  2.00786031e-01  2.01970451e-01  2.11928448e-01
  2.17631439e-01  2.21970448e-01  2.30844309e-01  2.37267170e-01
  2.38761490e-01  2.47226637e-01  2.51188675e-01  2.53646061e-01
  2.54628722e-01  2.64705461e-01  2.73301001e-01  2.84704507e-01
  2.89017529e-01  2.91242881e-01  3.03012186e-01  3.10681053e-01
  3.17117826e-01  3.22436048e-01  3.31325801e-01  3.42415263e-01
  3.50635108e-01  3.58590280e-01  3.72216214e-01  4.02670692e-01
  4.06250742e-01  4.15618663e-01  4.21889745e-01  4.30386559e-01
  4.38365726e-01  4.42798587e-01  4.47265949e-01  4.63241223e-01
  4.67541620e-01  4.75432472e-01  4.80094084e-01  4.90446734e-01
  5.05307563e-01  5.07120171e-01  5.14714414e-01  5.18399105e-01
  5.26702396e-01  5.36708628e-01  5.48202090e-01  5.52400554e-01
  5.57775176e-01  5.76678245e-01  5.83166799e-01  6.14813657e-01
  6.20842086e-01  6.32749926e-01  6.35135291e-01  6.44736566e-01
  6.57380990e-01  6.65073700e-01  6.75757194e-01  6.91044533e-01
  6.99019958e-01  7.01899764e-01  7.08451454e-01  7.14673200e-01
  7.23826760e-01  7.25905703e-01  7.30509483e-01  7.43025914e-01
  7.44925458e-01  7.48406806e-01  7.54904506e-01  7.57989192e-01
  7.59432457e-01  7.67279643e-01  7.69291854e-01  7.73020049e-01
  7.74950780e-01  7.79440237e-01  7.84367709e-01  7.86764799e-01
  7.89129453e-01  7.94426832e-01  7.97326070e-01  8.00349677e-01
  8.08383368e-01  8.12540408e-01  8.15880698e-01  8.19675658e-01
  8.26202797e-01  8.27209098e-01  8.41041615e-01  8.49152803e-01
  8.62121051e-01  8.65576819e-01  8.81428475e-01  8.89618050e-01
  8.93482474e-01  9.13989642e-01  9.21323759e-01  9.22836913e-01
  9.35956123e-01  9.36659997e-01  9.49173391e-01  9.58433112e-01
  9.64206295e-01  9.68092500e-01  9.79000460e-01  9.85438058e-01
  9.99955036e-01  1.02287679e+00  1.04052869e+00  1.04462683e+00
  1.06629815e+00  1.06730585e+00  1.07859005e+00  1.09897615e+00
  1.11602033e+00  1.12035751e+00  1.14284701e+00  1.15152107e+00
  1.16574606e+00  1.19259039e+00  1.21822762e+00  1.23132096e+00
  1.24401980e+00  1.27123281e+00  1.28200192e+00  1.28694880e+00
  1.30041981e+00  1.30756927e+00  1.33622665e+00  1.39376925e+00
  1.41689932e+00  1.43627028e+00  1.46139311e+00  1.49052550e+00
  1.49712682e+00  1.54041042e+00  1.54891478e+00  1.57216262e+00
  1.58683101e+00  1.65010896e+00  1.66555638e+00  1.70987943e+00
  1.80118667e+00  1.84155669e+00  1.86281136e+00  1.89584650e+00
  1.95213776e+00  1.99347420e+00  2.06845312e+00  2.08389197e+00
  2.14678016e+00  2.21877554e+00  2.26815074e+00  2.30701335e+00
  2.33843105e+00  2.38788900e+00  2.44452658e+00  2.46404940e+00
  2.49662510e+00  2.52282491e+00  2.58829998e+00  2.62212356e+00
  2.65867267e+00  2.66932294e+00  2.72307765e+00  2.77680001e+00
  2.82330150e+00  2.83092515e+00  2.84276278e+00  2.87669831e+00
  2.89691694e+00  2.96521118e+00  3.00416320e+00  3.03798270e+00
  3.04309225e+00  3.06111779e+00  3.06976436e+00  3.12272514e+00
  3.12939559e+00  3.19012631e+00  3.20501275e+00  3.23417656e+00
  3.28835527e+00  3.29128479e+00  3.31397951e+00  3.32375067e+00
  3.34138598e+00  3.34564049e+00  3.37706933e+00  3.40693761e+00
  3.43678750e+00  3.46751657e+00  3.47889652e+00  3.53450961e+00
  3.53540117e+00  3.55112730e+00  3.61120743e+00  3.67731644e+00
  3.69523796e+00  3.70471804e+00  3.74302361e+00  3.77514990e+00
  3.79639434e+00  3.86143259e+00  3.86741047e+00  3.90030476e+00
  3.90144272e+00  3.96464157e+00  3.96830421e+00  4.03282037e+00
  4.04721334e+00  4.06570676e+00  4.07210974e+00  4.09734969e+00
  4.15894460e+00  4.25082906e+00  4.27472692e+00  4.29341514e+00
  4.29889096e+00  4.38561481e+00  4.39501257e+00  4.43371292e+00
  4.44355285e+00  4.49944666e+00  4.52104282e+00  4.52736336e+00
  4.65686650e+00  4.67392815e+00  4.68539435e+00  4.70074323e+00
  4.77001518e+00  4.82482996e+00  4.83718409e+00  4.95402310e+00
  5.01272479e+00  5.05998784e+00  5.08561310e+00  5.14849966e+00
  5.15653029e+00  5.32227954e+00  5.34484972e+00  5.40214329e+00
  5.44680231e+00  5.47924199e+00  5.48966150e+00  5.53801471e+00
  5.59169815e+00  5.61407655e+00  5.61793969e+00  5.69486385e+00
  5.75039463e+00  5.75975497e+00  5.85653085e+00  5.88012713e+00
  5.98865608e+00  6.00552664e+00  6.09252936e+00  6.11853086e+00
  6.12929073e+00  6.15340607e+00  6.20491406e+00  6.21853696e+00
  6.29041089e+00  6.39824691e+00  6.44474383e+00  6.45690392e+00
  6.47209674e+00  6.59641220e+00  6.64371822e+00  6.72007716e+00
  6.80052904e+00  6.84899233e+00  6.91239554e+00  6.97464100e+00
  6.99808220e+00  7.04772134e+00  7.10301051e+00  7.18810018e+00
  7.23025566e+00  7.30287561e+00  7.31378838e+00  7.35628116e+00
  7.39707237e+00  7.45334759e+00  7.50711074e+00  7.53214303e+00
  7.72565271e+00  7.76813121e+00  7.91014472e+00  7.97644002e+00
  8.08188381e+00  8.46757524e+00  1.08765259e+01  1.30334774e+01
  1.32863135e+01  1.39723335e+01  1.58557203e+01  1.71423236e+01]
E1 = -1166.8082496764669  E_coul = 462.5628880923801
cycle= 14 E= -370.35421690272  delta_E= -3.45e-10  |g|= 3.45e-06  |ddm|= 6.98e-05
    CPU time for cycle= 14     13.16 sec, wall time      0.42 sec
  HOMO = -0.127853523566605  LUMO = -0.0144531140545944
  mo_energy =
[-2.06423577e+01 -2.06423085e+01 -2.05769910e+01 -1.14459717e+01
 -1.13062431e+01 -1.13051953e+01 -2.51331743e+00 -2.44533508e+00
 -2.43965891e+00 -2.43438102e+00 -1.63383579e+00 -1.48295103e+00
 -1.46674428e+00 -1.12722804e+00 -9.81492227e-01 -8.94127297e-01
 -8.28148637e-01 -8.03120134e-01 -7.46117342e-01 -7.19594653e-01
 -6.81247083e-01 -6.75803926e-01 -6.08289934e-01 -5.82351092e-01
 -5.39030741e-01 -5.23625987e-01 -5.02200922e-01 -1.65714488e-01
 -1.27853524e-01 -1.44531141e-02  2.03113365e-02  3.16583001e-02
  3.41812984e-02  3.87731433e-02  4.13363641e-02  4.80788890e-02
  5.06070395e-02  5.69738156e-02  6.55765060e-02  7.56789287e-02
  7.93967459e-02  9.04114766e-02  9.49727844e-02  1.10795547e-01
  1.14497421e-01  1.17489499e-01  1.28275201e-01  1.29649652e-01
  1.41701615e-01  1.45099419e-01  1.54050298e-01  1.57930608e-01
  1.58092442e-01  1.66555150e-01  1.70366990e-01  1.77957740e-01
  1.83808075e-01  2.00786095e-01  2.01970537e-01  2.11928633e-01
  2.17631496e-01  2.21970581e-01  2.30844421e-01  2.37267168e-01
  2.38761604e-01  2.47226628e-01  2.51188779e-01  2.53646028e-01
  2.54628727e-01  2.64705673e-01  2.73301036e-01  2.84704511e-01
  2.89017671e-01  2.91243008e-01  3.03012248e-01  3.10681158e-01
  3.17117899e-01  3.22436157e-01  3.31325874e-01  3.42415369e-01
  3.50635353e-01  3.58590331e-01  3.72216248e-01  4.02670715e-01
  4.06250863e-01  4.15618633e-01  4.21890049e-01  4.30386715e-01
  4.38366047e-01  4.42798759e-01  4.47266000e-01  4.63241559e-01
  4.67541854e-01  4.75432501e-01  4.80094252e-01  4.90446919e-01
  5.05307407e-01  5.07120360e-01  5.14714578e-01  5.18399239e-01
  5.26702481e-01  5.36708807e-01  5.48202231e-01  5.52400681e-01
  5.57775358e-01  5.76678166e-01  5.83166980e-01  6.14813854e-01
  6.20842251e-01  6.32750033e-01  6.35135393e-01  6.44736775e-01
  6.57381172e-01  6.65073876e-01  6.75757470e-01  6.91044759e-01
  6.99020095e-01  7.01899857e-01  7.08451599e-01  7.14673388e-01
  7.23827081e-01  7.25905928e-01  7.30509945e-01  7.43026369e-01
  7.44925559e-01  7.48407089e-01  7.54904576e-01  7.57989401e-01
  7.59432614e-01  7.67279634e-01  7.69291707e-01  7.73020209e-01
  7.74950604e-01  7.79440341e-01  7.84367813e-01  7.86764799e-01
  7.89129544e-01  7.94426965e-01  7.97326030e-01  8.00349752e-01
  8.08383481e-01  8.12540562e-01  8.15880803e-01  8.19675861e-01
  8.26202797e-01  8.27209101e-01  8.41041794e-01  8.49152991e-01
  8.62121257e-01  8.65576872e-01  8.81428574e-01  8.89618199e-01
  8.93482577e-01  9.13989818e-01  9.21323755e-01  9.22836976e-01
  9.35956175e-01  9.36660180e-01  9.49173589e-01  9.58433150e-01
  9.64206301e-01  9.68092675e-01  9.79000535e-01  9.85438270e-01
  9.99955261e-01  1.02287694e+00  1.04052880e+00  1.04462699e+00
  1.06629845e+00  1.06730605e+00  1.07859023e+00  1.09897623e+00
  1.11602044e+00  1.12035760e+00  1.14284719e+00  1.15152116e+00
  1.16574618e+00  1.19259061e+00  1.21822776e+00  1.23132109e+00
  1.24401997e+00  1.27123293e+00  1.28200211e+00  1.28694894e+00
  1.30042010e+00  1.30756939e+00  1.33622688e+00  1.39376942e+00
  1.41689947e+00  1.43627040e+00  1.46139335e+00  1.49052558e+00
  1.49712696e+00  1.54041057e+00  1.54891495e+00  1.57216280e+00
  1.58683108e+00  1.65010913e+00  1.66555668e+00  1.70987956e+00
  1.80118693e+00  1.84155678e+00  1.86281156e+00  1.89584668e+00
  1.95213804e+00  1.99347425e+00  2.06845315e+00  2.08389225e+00
  2.14678025e+00  2.21877569e+00  2.26815062e+00  2.30701338e+00
  2.33843113e+00  2.38788914e+00  2.44452663e+00  2.46404949e+00
  2.49662530e+00  2.52282498e+00  2.58830015e+00  2.62212378e+00
  2.65867288e+00  2.66932320e+00  2.72307796e+00  2.77680031e+00
  2.82330164e+00  2.83092529e+00  2.84276314e+00  2.87669863e+00
  2.89691728e+00  2.96521133e+00  3.00416352e+00  3.03798325e+00
  3.04309259e+00  3.06111780e+00  3.06976458e+00  3.12272542e+00
  3.12939582e+00  3.19012660e+00  3.20501298e+00  3.23417688e+00
  3.28835549e+00  3.29128512e+00  3.31397979e+00  3.32375082e+00
  3.34138616e+00  3.34564072e+00  3.37706950e+00  3.40693785e+00
  3.43678778e+00  3.46751680e+00  3.47889682e+00  3.53450973e+00
  3.53540130e+00  3.55112748e+00  3.61120756e+00  3.67731656e+00
  3.69523802e+00  3.70471835e+00  3.74302389e+00  3.77515011e+00
  3.79639445e+00  3.86143276e+00  3.86741065e+00  3.90030499e+00
  3.90144286e+00  3.96464168e+00  3.96830443e+00  4.03282057e+00
  4.04721354e+00  4.06570697e+00  4.07210982e+00  4.09734986e+00
  4.15894477e+00  4.25082923e+00  4.27472717e+00  4.29341515e+00
  4.29889116e+00  4.38561503e+00  4.39501268e+00  4.43371316e+00
  4.44355309e+00  4.49944680e+00  4.52104307e+00  4.52736353e+00
  4.65686679e+00  4.67392856e+00  4.68539462e+00  4.70074386e+00
  4.77001571e+00  4.82483010e+00  4.83718411e+00  4.95402337e+00
  5.01272497e+00  5.05998798e+00  5.08561324e+00  5.14849986e+00
  5.15653051e+00  5.32227963e+00  5.34484984e+00  5.40214359e+00
  5.44680255e+00  5.47924229e+00  5.48966163e+00  5.53801498e+00
  5.59169880e+00  5.61407693e+00  5.61794032e+00  5.69486408e+00
  5.75039477e+00  5.75975521e+00  5.85653095e+00  5.88012729e+00
  5.98865606e+00  6.00552694e+00  6.09252941e+00  6.11853119e+00
  6.12929103e+00  6.15340615e+00  6.20491401e+00  6.21853706e+00
  6.29041100e+00  6.39824677e+00  6.44474368e+00  6.45690401e+00
  6.47209665e+00  6.59641221e+00  6.64371806e+00  6.72007734e+00
  6.80052937e+00  6.84899242e+00  6.91239562e+00  6.97464150e+00
  6.99808297e+00  7.04772164e+00  7.10301083e+00  7.18810010e+00
  7.23025540e+00  7.30287539e+00  7.31378789e+00  7.35628084e+00
  7.39707309e+00  7.45334726e+00  7.50711092e+00  7.53214261e+00
  7.72565297e+00  7.76813079e+00  7.91014492e+00  7.97643991e+00
  8.08188343e+00  8.46757545e+00  1.08765258e+01  1.30334777e+01
  1.32863129e+01  1.39723338e+01  1.58557210e+01  1.71423242e+01]
E1 = -1166.8082505882517  E_coul = 462.56288900413034
Extra cycle  E= -370.354216902755  delta_E= -3.46e-11  |g|= 2.35e-06  |ddm|= 1.4e-05
    CPU time for scf_cycle    291.31 sec, wall time      9.32 sec
    CPU time for SCF    291.31 sec, wall time      9.32 sec
converged SCF energy = -370.354216902755
