#INFO: **** input file is /burg/ccce/users/eav2136/projects/batteries/01_mp2/hf_script.py ****
#!/usr/bin/env python3
from pyscf import gto, scf, mp
import sys
from fileutils import dump
import h5py

mol = gto.Mole()
mol.verbose = 10
mol.atom = f"geom_{sys.argv[1]}.xyz"
mol.basis = "ccpvtz"
mol.unit = "ANG"
mol.build()

mf = scf.RHF(mol)
# determine the output of mf.kernel()
mf.kernel()

conv = mf.converged
e_tot = mf.e_tot
mo_energy = mf.mo_energy
mo_coeff = mf.mo_coeff

dataout = {}
dataout["e_tot"] = e_tot
dataout["conv"] = conv
dump(dataout, f"data/hf_geom_{sys.argv[1]}.json")

with h5py.File(f"data/hf_geom_{sys.argv[1]}.h5", "w") as f:
    f.create_dataset("mo_energy", data=mo_energy)
    f.create_dataset("mo_coeff", data=mo_coeff)#INFO: ******************** input file end ********************


System: uname_result(system='Linux', node='g108', release='4.18.0-193.el8.x86_64', version='#1 SMP Fri Mar 27 14:35:58 UTC 2020', machine='x86_64')  Threads 32
Python 3.10.12 (main, Jul 29 2023, 11:27:27) [GCC 13.2.0]
numpy 1.25.1  scipy 1.10.1
Date: Fri Jan 19 11:31:25 2024
PySCF version 2.0.1
PySCF path  /burg/berkelbach/users/eav2136/builds/pyscf/projected-cvs/pyscf
GIT ORIG_HEAD 0bfbc692adf3ea63b8a509210433219cd1c472a2
GIT HEAD (branch projected-cvs) e14caaa2dddc538b9be2d86f01e5b456fc92da36

[ENV] PYSCF_TMPDIR /burg/ccce/users/eav2136/projects/batteries/01_mp2/tmp
[ENV] PYSCF_MAX_MEMORY 700000
[CONFIG] DEBUG = False
[CONFIG] MAX_MEMORY = 700000
[CONFIG] TMPDIR = /burg/ccce/users/eav2136/projects/batteries/01_mp2/tmp
[CONFIG] UNIT = angstrom
[CONFIG] VERBOSE = 3
[CONFIG] conf_file = None
[INPUT] verbose = 10
[INPUT] max_memory = 700000 
[INPUT] num. atoms = 20
[INPUT] num. electrons = 76
[INPUT] charge = 0
[INPUT] spin (= nelec alpha-beta = 2S) = 0
[INPUT] symmetry False subgroup None
[INPUT] Mole.unit = ANG
[INPUT]  1 C      4.889700000000   4.599650000000  10.258310000000 AA    9.240193831286   8.692078768856  19.385396400887 Bohr
[INPUT]  2 O      4.870170000000   4.245790000000   8.952570000000 AA    9.203287480073   8.023380282417  16.917905410997 Bohr
[INPUT]  3 C      5.310840000000   5.193710000000   8.233300000000 AA   10.036033091385   9.814689470415  15.558682101382 Bohr
[INPUT]  4 O      5.765780000000   6.111200000000   8.982240000000 AA   10.895745094495  11.548494292442  16.973973585113 Bohr
[INPUT]  5 C      5.774150000000   5.702340000000  10.272330000000 AA   10.911562102157  10.775860869152  19.411890361153 Bohr
[INPUT]  6 O      5.299720000000   5.216150000000   7.112960000000 AA   10.015019336880   9.857094924650  13.441546334986 Bohr
[INPUT]  7 H      5.212360000000   3.798320000000  10.814180000000 AA    9.849932862638   7.177784533458  20.435838461749 Bohr
[INPUT]  8 H      3.953110000000   4.871240000000  10.548100000000 AA    7.470295240279   9.205309487026  19.933020134525 Bohr
[INPUT]  9 H      5.464720000000   6.479910000000  10.867980000000 AA   10.326824147433  12.245255211830  20.537505727251 Bohr
[INPUT] 10 H      6.716790000000   5.418990000000  10.529430000000 AA   12.692893536217  10.240406971757  19.897738947779 Bohr
[INPUT] 11 Li     5.263950000000   5.263950000000   5.263950000000 AA    9.947423833404   9.947423833404   9.947423833404 Bohr
[INPUT] 12 Li     5.263950000000   1.754650000000   5.263950000000 AA    9.947423833404   3.315807944468   9.947423833404 Bohr
[INPUT] 13 Li     8.773250000000   5.263950000000   5.263950000000 AA   16.579039722340   9.947423833404   9.947423833404 Bohr
[INPUT] 14 Li     1.754650000000   5.263950000000   5.263950000000 AA    3.315807944468   9.947423833404   9.947423833404 Bohr
[INPUT] 15 Li     5.263950000000   8.773250000000   5.263950000000 AA    9.947423833404  16.579039722340   9.947423833404 Bohr
[INPUT] 16 Li     7.018600000000   3.509300000000   3.509300000000 AA   13.263231777872   6.631615888936   6.631615888936 Bohr
[INPUT] 17 Li     3.509300000000   3.509300000000   3.509300000000 AA    6.631615888936   6.631615888936   6.631615888936 Bohr
[INPUT] 18 Li     7.018600000000   7.018600000000   3.509300000000 AA   13.263231777872  13.263231777872   6.631615888936 Bohr
[INPUT] 19 Li     3.509300000000   7.018600000000   3.509300000000 AA    6.631615888936  13.263231777872   6.631615888936 Bohr
[INPUT] 20 Li     8.773250000000   1.754650000000   5.263950000000 AA   16.579039722340   3.315807944468   9.947423833404 Bohr
[INPUT] ---------------- BASIS SET ---------------- 
[INPUT] l, kappa, [nprim/nctr], expnt,             c_1 c_2 ...
[INPUT] O
[INPUT] 0    0    [8    /2   ]  15330             0.000508 -0.000115
                                2299              0.003929 -0.000895
                                522.4             0.020243 -0.004636
                                147.3             0.079181 -0.018724
                                47.55             0.230687 -0.058463
                                16.76             0.433118 -0.136463
                                6.207             0.35026 -0.17574
                                0.6882            -0.008154 0.603418
[INPUT] 0    0    [1    /1   ]  1.752                1
[INPUT] 0    0    [1    /1   ]  0.2384               1
[INPUT] 1    0    [3    /1   ]  34.46             0.015928
                                7.749             0.09974
                                2.28              0.310492
[INPUT] 1    0    [1    /1   ]  0.7156               1
[INPUT] 1    0    [1    /1   ]  0.214                1
[INPUT] 2    0    [1    /1   ]  2.314                1
[INPUT] 2    0    [1    /1   ]  0.645                1
[INPUT] 3    0    [1    /1   ]  1.428                1
[INPUT] H
[INPUT] 0    0    [3    /1   ]  33.87             0.006068
                                5.095             0.045308
                                1.159             0.202822
[INPUT] 0    0    [1    /1   ]  0.3258               1
[INPUT] 0    0    [1    /1   ]  0.1027               1
[INPUT] 1    0    [1    /1   ]  1.407                1
[INPUT] 1    0    [1    /1   ]  0.388                1
[INPUT] 2    0    [1    /1   ]  1.057                1
[INPUT] Li
[INPUT] 0    0    [9    /2   ]  5988              0.000133 -2.1e-05
                                898.9             0.001025 -0.000161
                                205.9             0.005272 -0.00082
                                59.24             0.020929 -0.003326
                                19.87             0.06634 -0.010519
                                7.406             0.165775 -0.028097
                                2.93              0.315038 -0.055936
                                1.189             0.393523 -0.099237
                                0.4798            0.19087 -0.112189
[INPUT] 0    0    [1    /1   ]  0.07509              1
[INPUT] 0    0    [1    /1   ]  0.02832              1
[INPUT] 1    0    [3    /1   ]  3.266             0.00863
                                0.6511            0.047538
                                0.1696            0.209772
[INPUT] 1    0    [1    /1   ]  0.05578              1
[INPUT] 1    0    [1    /1   ]  0.0205               1
[INPUT] 2    0    [1    /1   ]  0.1874               1
[INPUT] 2    0    [1    /1   ]  0.0801               1
[INPUT] 3    0    [1    /1   ]  0.1829               1
[INPUT] C
[INPUT] 0    0    [8    /2   ]  8236              0.000531 -0.000113
                                1235              0.004108 -0.000878
                                280.8             0.021087 -0.00454
                                79.27             0.081853 -0.018133
                                25.59             0.234817 -0.05576
                                8.997             0.434401 -0.126895
                                3.319             0.346129 -0.170352
                                0.3643            -0.008983 0.598684
[INPUT] 0    0    [1    /1   ]  0.9059               1
[INPUT] 0    0    [1    /1   ]  0.1285               1
[INPUT] 1    0    [3    /1   ]  18.71             0.014031
                                4.133             0.086866
                                1.2               0.290216
[INPUT] 1    0    [1    /1   ]  0.3827               1
[INPUT] 1    0    [1    /1   ]  0.1209               1
[INPUT] 2    0    [1    /1   ]  1.097                1
[INPUT] 2    0    [1    /1   ]  0.318                1
[INPUT] 3    0    [1    /1   ]  0.761                1

nuclear repulsion = 454.583609470123
number of shells = 168
number of NR pGTOs = 746
number of NR cGTOs = 536
basis = ccpvtz
ecp = {}
bas 0, expnt(s) = [8.236e+03 1.235e+03 2.808e+02 7.927e+01 2.559e+01 8.997e+00 3.319e+00
 3.643e-01]
bas 1, expnt(s) = [0.9059]
bas 2, expnt(s) = [0.1285]
bas 3, expnt(s) = [18.71   4.133  1.2  ]
bas 4, expnt(s) = [0.3827]
bas 5, expnt(s) = [0.1209]
bas 6, expnt(s) = [1.097]
bas 7, expnt(s) = [0.318]
bas 8, expnt(s) = [0.761]
bas 9, expnt(s) = [1.533e+04 2.299e+03 5.224e+02 1.473e+02 4.755e+01 1.676e+01 6.207e+00
 6.882e-01]
bas 10, expnt(s) = [1.752]
bas 11, expnt(s) = [0.2384]
bas 12, expnt(s) = [34.46   7.749  2.28 ]
bas 13, expnt(s) = [0.7156]
bas 14, expnt(s) = [0.214]
bas 15, expnt(s) = [2.314]
bas 16, expnt(s) = [0.645]
bas 17, expnt(s) = [1.428]
bas 18, expnt(s) = [8.236e+03 1.235e+03 2.808e+02 7.927e+01 2.559e+01 8.997e+00 3.319e+00
 3.643e-01]
bas 19, expnt(s) = [0.9059]
bas 20, expnt(s) = [0.1285]
bas 21, expnt(s) = [18.71   4.133  1.2  ]
bas 22, expnt(s) = [0.3827]
bas 23, expnt(s) = [0.1209]
bas 24, expnt(s) = [1.097]
bas 25, expnt(s) = [0.318]
bas 26, expnt(s) = [0.761]
bas 27, expnt(s) = [1.533e+04 2.299e+03 5.224e+02 1.473e+02 4.755e+01 1.676e+01 6.207e+00
 6.882e-01]
bas 28, expnt(s) = [1.752]
bas 29, expnt(s) = [0.2384]
bas 30, expnt(s) = [34.46   7.749  2.28 ]
bas 31, expnt(s) = [0.7156]
bas 32, expnt(s) = [0.214]
bas 33, expnt(s) = [2.314]
bas 34, expnt(s) = [0.645]
bas 35, expnt(s) = [1.428]
bas 36, expnt(s) = [8.236e+03 1.235e+03 2.808e+02 7.927e+01 2.559e+01 8.997e+00 3.319e+00
 3.643e-01]
bas 37, expnt(s) = [0.9059]
bas 38, expnt(s) = [0.1285]
bas 39, expnt(s) = [18.71   4.133  1.2  ]
bas 40, expnt(s) = [0.3827]
bas 41, expnt(s) = [0.1209]
bas 42, expnt(s) = [1.097]
bas 43, expnt(s) = [0.318]
bas 44, expnt(s) = [0.761]
bas 45, expnt(s) = [1.533e+04 2.299e+03 5.224e+02 1.473e+02 4.755e+01 1.676e+01 6.207e+00
 6.882e-01]
bas 46, expnt(s) = [1.752]
bas 47, expnt(s) = [0.2384]
bas 48, expnt(s) = [34.46   7.749  2.28 ]
bas 49, expnt(s) = [0.7156]
bas 50, expnt(s) = [0.214]
bas 51, expnt(s) = [2.314]
bas 52, expnt(s) = [0.645]
bas 53, expnt(s) = [1.428]
bas 54, expnt(s) = [33.87   5.095  1.159]
bas 55, expnt(s) = [0.3258]
bas 56, expnt(s) = [0.1027]
bas 57, expnt(s) = [1.407]
bas 58, expnt(s) = [0.388]
bas 59, expnt(s) = [1.057]
bas 60, expnt(s) = [33.87   5.095  1.159]
bas 61, expnt(s) = [0.3258]
bas 62, expnt(s) = [0.1027]
bas 63, expnt(s) = [1.407]
bas 64, expnt(s) = [0.388]
bas 65, expnt(s) = [1.057]
bas 66, expnt(s) = [33.87   5.095  1.159]
bas 67, expnt(s) = [0.3258]
bas 68, expnt(s) = [0.1027]
bas 69, expnt(s) = [1.407]
bas 70, expnt(s) = [0.388]
bas 71, expnt(s) = [1.057]
bas 72, expnt(s) = [33.87   5.095  1.159]
bas 73, expnt(s) = [0.3258]
bas 74, expnt(s) = [0.1027]
bas 75, expnt(s) = [1.407]
bas 76, expnt(s) = [0.388]
bas 77, expnt(s) = [1.057]
bas 78, expnt(s) = [5.988e+03 8.989e+02 2.059e+02 5.924e+01 1.987e+01 7.406e+00 2.930e+00
 1.189e+00 4.798e-01]
bas 79, expnt(s) = [0.07509]
bas 80, expnt(s) = [0.02832]
bas 81, expnt(s) = [3.266  0.6511 0.1696]
bas 82, expnt(s) = [0.05578]
bas 83, expnt(s) = [0.0205]
bas 84, expnt(s) = [0.1874]
bas 85, expnt(s) = [0.0801]
bas 86, expnt(s) = [0.1829]
bas 87, expnt(s) = [5.988e+03 8.989e+02 2.059e+02 5.924e+01 1.987e+01 7.406e+00 2.930e+00
 1.189e+00 4.798e-01]
bas 88, expnt(s) = [0.07509]
bas 89, expnt(s) = [0.02832]
bas 90, expnt(s) = [3.266  0.6511 0.1696]
bas 91, expnt(s) = [0.05578]
bas 92, expnt(s) = [0.0205]
bas 93, expnt(s) = [0.1874]
bas 94, expnt(s) = [0.0801]
bas 95, expnt(s) = [0.1829]
bas 96, expnt(s) = [5.988e+03 8.989e+02 2.059e+02 5.924e+01 1.987e+01 7.406e+00 2.930e+00
 1.189e+00 4.798e-01]
bas 97, expnt(s) = [0.07509]
bas 98, expnt(s) = [0.02832]
bas 99, expnt(s) = [3.266  0.6511 0.1696]
bas 100, expnt(s) = [0.05578]
bas 101, expnt(s) = [0.0205]
bas 102, expnt(s) = [0.1874]
bas 103, expnt(s) = [0.0801]
bas 104, expnt(s) = [0.1829]
bas 105, expnt(s) = [5.988e+03 8.989e+02 2.059e+02 5.924e+01 1.987e+01 7.406e+00 2.930e+00
 1.189e+00 4.798e-01]
bas 106, expnt(s) = [0.07509]
bas 107, expnt(s) = [0.02832]
bas 108, expnt(s) = [3.266  0.6511 0.1696]
bas 109, expnt(s) = [0.05578]
bas 110, expnt(s) = [0.0205]
bas 111, expnt(s) = [0.1874]
bas 112, expnt(s) = [0.0801]
bas 113, expnt(s) = [0.1829]
bas 114, expnt(s) = [5.988e+03 8.989e+02 2.059e+02 5.924e+01 1.987e+01 7.406e+00 2.930e+00
 1.189e+00 4.798e-01]
bas 115, expnt(s) = [0.07509]
bas 116, expnt(s) = [0.02832]
bas 117, expnt(s) = [3.266  0.6511 0.1696]
bas 118, expnt(s) = [0.05578]
bas 119, expnt(s) = [0.0205]
bas 120, expnt(s) = [0.1874]
bas 121, expnt(s) = [0.0801]
bas 122, expnt(s) = [0.1829]
bas 123, expnt(s) = [5.988e+03 8.989e+02 2.059e+02 5.924e+01 1.987e+01 7.406e+00 2.930e+00
 1.189e+00 4.798e-01]
bas 124, expnt(s) = [0.07509]
bas 125, expnt(s) = [0.02832]
bas 126, expnt(s) = [3.266  0.6511 0.1696]
bas 127, expnt(s) = [0.05578]
bas 128, expnt(s) = [0.0205]
bas 129, expnt(s) = [0.1874]
bas 130, expnt(s) = [0.0801]
bas 131, expnt(s) = [0.1829]
bas 132, expnt(s) = [5.988e+03 8.989e+02 2.059e+02 5.924e+01 1.987e+01 7.406e+00 2.930e+00
 1.189e+00 4.798e-01]
bas 133, expnt(s) = [0.07509]
bas 134, expnt(s) = [0.02832]
bas 135, expnt(s) = [3.266  0.6511 0.1696]
bas 136, expnt(s) = [0.05578]
bas 137, expnt(s) = [0.0205]
bas 138, expnt(s) = [0.1874]
bas 139, expnt(s) = [0.0801]
bas 140, expnt(s) = [0.1829]
bas 141, expnt(s) = [5.988e+03 8.989e+02 2.059e+02 5.924e+01 1.987e+01 7.406e+00 2.930e+00
 1.189e+00 4.798e-01]
bas 142, expnt(s) = [0.07509]
bas 143, expnt(s) = [0.02832]
bas 144, expnt(s) = [3.266  0.6511 0.1696]
bas 145, expnt(s) = [0.05578]
bas 146, expnt(s) = [0.0205]
bas 147, expnt(s) = [0.1874]
bas 148, expnt(s) = [0.0801]
bas 149, expnt(s) = [0.1829]
bas 150, expnt(s) = [5.988e+03 8.989e+02 2.059e+02 5.924e+01 1.987e+01 7.406e+00 2.930e+00
 1.189e+00 4.798e-01]
bas 151, expnt(s) = [0.07509]
bas 152, expnt(s) = [0.02832]
bas 153, expnt(s) = [3.266  0.6511 0.1696]
bas 154, expnt(s) = [0.05578]
bas 155, expnt(s) = [0.0205]
bas 156, expnt(s) = [0.1874]
bas 157, expnt(s) = [0.0801]
bas 158, expnt(s) = [0.1829]
bas 159, expnt(s) = [5.988e+03 8.989e+02 2.059e+02 5.924e+01 1.987e+01 7.406e+00 2.930e+00
 1.189e+00 4.798e-01]
bas 160, expnt(s) = [0.07509]
bas 161, expnt(s) = [0.02832]
bas 162, expnt(s) = [3.266  0.6511 0.1696]
bas 163, expnt(s) = [0.05578]
bas 164, expnt(s) = [0.0205]
bas 165, expnt(s) = [0.1874]
bas 166, expnt(s) = [0.0801]
bas 167, expnt(s) = [0.1829]
CPU time:         0.66
arg.atm = [[ 6 20  1 23  0  0]
 [ 8 24  1 27  0  0]
 [ 6 28  1 31  0  0]
 [ 8 32  1 35  0  0]
 [ 6 36  1 39  0  0]
 [ 8 40  1 43  0  0]
 [ 1 44  1 47  0  0]
 [ 1 48  1 51  0  0]
 [ 1 52  1 55  0  0]
 [ 1 56  1 59  0  0]
 [ 3 60  1 63  0  0]
 [ 3 64  1 67  0  0]
 [ 3 68  1 71  0  0]
 [ 3 72  1 75  0  0]
 [ 3 76  1 79  0  0]
 [ 3 80  1 83  0  0]
 [ 3 84  1 87  0  0]
 [ 3 88  1 91  0  0]
 [ 3 92  1 95  0  0]
 [ 3 96  1 99  0  0]]
arg.bas = [[  0   0   8 ... 207 215   0]
 [  0   0   1 ... 231 232   0]
 [  0   0   1 ... 233 234   0]
 ...
 [ 19   2   1 ... 201 202   0]
 [ 19   2   1 ... 203 204   0]
 [ 19   3   1 ... 205 206   0]]
arg.env = [ 0.00000000e+00  0.00000000e+00  0.00000000e+00  0.00000000e+00
  0.00000000e+00  0.00000000e+00  0.00000000e+00  0.00000000e+00
  0.00000000e+00  0.00000000e+00  0.00000000e+00  0.00000000e+00
  0.00000000e+00  0.00000000e+00  0.00000000e+00  0.00000000e+00
  0.00000000e+00  0.00000000e+00  0.00000000e+00  0.00000000e+00
  9.24019383e+00  8.69207877e+00  1.93853964e+01  0.00000000e+00
  9.20328748e+00  8.02338028e+00  1.69179054e+01  0.00000000e+00
  1.00360331e+01  9.81468947e+00  1.55586821e+01  0.00000000e+00
  1.08957451e+01  1.15484943e+01  1.69739736e+01  0.00000000e+00
  1.09115621e+01  1.07758609e+01  1.94118904e+01  0.00000000e+00
  1.00150193e+01  9.85709492e+00  1.34415463e+01  0.00000000e+00
  9.84993286e+00  7.17778453e+00  2.04358385e+01  0.00000000e+00
  7.47029524e+00  9.20530949e+00  1.99330201e+01  0.00000000e+00
  1.03268241e+01  1.22452552e+01  2.05375057e+01  0.00000000e+00
  1.26928935e+01  1.02404070e+01  1.98977389e+01  0.00000000e+00
  9.94742383e+00  9.94742383e+00  9.94742383e+00  0.00000000e+00
  9.94742383e+00  3.31580794e+00  9.94742383e+00  0.00000000e+00
  1.65790397e+01  9.94742383e+00  9.94742383e+00  0.00000000e+00
  3.31580794e+00  9.94742383e+00  9.94742383e+00  0.00000000e+00
  9.94742383e+00  1.65790397e+01  9.94742383e+00  0.00000000e+00
  1.32632318e+01  6.63161589e+00  6.63161589e+00  0.00000000e+00
  6.63161589e+00  6.63161589e+00  6.63161589e+00  0.00000000e+00
  1.32632318e+01  1.32632318e+01  6.63161589e+00  0.00000000e+00
  6.63161589e+00  1.32632318e+01  6.63161589e+00  0.00000000e+00
  1.65790397e+01  3.31580794e+00  9.94742383e+00  0.00000000e+00
  1.53300000e+04  2.29900000e+03  5.22400000e+02  1.47300000e+02
  4.75500000e+01  1.67600000e+01  6.20700000e+00  6.88200000e-01
  1.81067529e+00  3.37486577e+00  5.72265412e+00  8.66150357e+00
  1.08070276e+01  9.28179538e+00  3.56346173e+00 -1.59395830e-02
 -6.86527364e-01 -1.28759909e+00 -2.19507417e+00 -3.43047366e+00
 -4.58719692e+00 -4.89805685e+00 -2.99457591e+00  1.97563931e+00
  1.75200000e+00  3.84738459e+00  2.38400000e-01  8.61975084e-01
  3.44600000e+01  7.74900000e+00  2.28000000e+00  1.00262994e+01
  9.72213774e+00  6.55849668e+00  7.15600000e-01  1.92009319e+00
  2.14000000e-01  4.24621137e-01  2.31400000e+00  1.13283134e+01
  6.45000000e-01  1.21132000e+00  1.42800000e+00  4.39692268e+00
  3.38700000e+01  5.09500000e+00  1.15900000e+00  9.04334519e-01
  1.63100455e+00  2.40491525e+00  3.25800000e-01  1.08950276e+00
  1.02700000e-01  4.58345379e-01  1.40700000e+00  4.47045795e+00
  3.88000000e-01  8.93354953e-01  1.05700000e+00  2.87515071e+00
  5.98800000e+03  8.98900000e+02  2.05900000e+02  5.92400000e+01
  1.98700000e+01  7.40600000e+00  2.93000000e+00  1.18900000e+00
  4.79800000e-01  2.29069316e-01  4.25756548e-01  7.25056076e-01
  1.13074246e+00  1.57971158e+00  1.88304523e+00  1.78512072e+00
  1.13373211e+00  2.78411257e-01 -1.33552750e-01 -2.46934407e-01
 -4.16416863e-01 -6.63522613e-01 -9.24900580e-01 -1.17847379e+00
 -1.17034612e+00 -1.05567981e+00 -6.04251387e-01  7.50900000e-02
  3.62411193e-01  2.83200000e-02  1.74415453e-01  3.26600000e+00
  6.51100000e-01  1.69600000e-01  4.55280795e-01  3.34078737e-01
  2.74333054e-01  5.57800000e-02  7.90828897e-02  2.05000000e-02
  2.26295917e-02  1.87400000e-01  1.39275961e-01  8.01000000e-02
  3.14692425e-02  1.82900000e-01  4.31510332e-02  8.23600000e+03
  1.23500000e+03  2.80800000e+02  7.92700000e+01  2.55900000e+01
  8.99700000e+00  3.31900000e+00  3.64300000e-01  1.18480296e+00
  2.20874210e+00  3.73316324e+00  5.61216719e+00  6.89519583e+00
  5.82409515e+00  2.19663441e+00 -1.08712663e-02 -4.28969670e-01
 -8.03166571e-01 -1.36745981e+00 -2.11525239e+00 -2.78571299e+00
 -2.89453423e+00 -1.83934657e+00  1.23268730e+00  9.05900000e-01
  2.34598494e+00  1.28500000e-01  5.42241022e-01  1.87100000e+01
  4.13300000e+00  1.20000000e+00  4.47572721e+00  4.19627876e+00
  2.98800046e+00  3.82700000e-01  8.78127282e-01  1.20900000e-01
  2.07977938e-01  1.09700000e+00  3.06825171e+00  3.18000000e-01
  3.51379844e-01  7.61000000e-01  1.06690522e+00]
ecpbas  = []


******** <class 'pyscf.scf.hf.RHF'> ********
method = RHF
initial guess = minao
damping factor = 0
level_shift factor = 0
DIIS = <class 'pyscf.scf.diis.CDIIS'>
diis_start_cycle = 1
diis_space = 8
SCF conv_tol = 1e-09
SCF conv_tol_grad = None
SCF max_cycles = 50
direct_scf = True
direct_scf_tol = 1e-13
chkfile to save SCF result = /burg/ccce/users/eav2136/projects/batteries/01_mp2/tmp/tmpvinls4hx
max_memory 700000 MB (current use 94 MB)
Set gradient conv threshold to 3.16228e-05
Nelec from initial guess = 75.99789438091089
E1 = -1464.9823189369822  E_coul = 592.065505759656
init E= -418.333203707203
cond(S) = 99739.7219216461
    CPU time for initialize scf    418.34 sec, wall time     13.26 sec
  HOMO = -0.0928813487633959  LUMO = -0.062548961461983
  mo_energy =
[-2.08436587e+01 -2.07936229e+01 -2.07926317e+01 -1.13786450e+01
 -1.13528449e+01 -1.13477246e+01 -2.51199667e+00 -2.50010812e+00
 -2.49592144e+00 -2.49472380e+00 -2.49449383e+00 -2.49059894e+00
 -2.49004578e+00 -2.48865064e+00 -2.48824382e+00 -2.48538204e+00
 -2.16866321e+00 -1.79595347e+00 -1.65775389e+00 -1.33701375e+00
 -1.05206763e+00 -9.00919180e-01 -8.02991818e-01 -7.84798366e-01
 -6.88480072e-01 -6.61654035e-01 -6.21156521e-01 -5.69928870e-01
 -5.00193787e-01 -4.93538530e-01 -4.37747304e-01 -4.04213768e-01
 -3.90727686e-01 -3.24529934e-01 -2.31877668e-01 -2.01617495e-01
 -1.03220899e-01 -9.28813488e-02 -6.25489615e-02 -4.63879358e-02
 -2.13352198e-02 -1.34232960e-02 -7.80633837e-03  5.37302354e-03
  8.26025176e-03  1.55865564e-02  1.98070256e-02  2.55310864e-02
  3.03852914e-02  3.84250231e-02  4.11708824e-02  4.72206571e-02
  4.79503027e-02  4.92957042e-02  5.45697488e-02  5.51933770e-02
  5.76683002e-02  5.78262315e-02  6.07258679e-02  6.24559829e-02
  6.41242725e-02  6.69977797e-02  7.10086443e-02  7.44822352e-02
  7.51833642e-02  7.90924680e-02  8.11812100e-02  8.71113336e-02
  8.93383853e-02  9.20154350e-02  9.36192169e-02  9.65017389e-02
  9.71699970e-02  9.84341452e-02  1.02841505e-01  1.03619015e-01
  1.08032963e-01  1.09575574e-01  1.12809694e-01  1.16711666e-01
  1.19792888e-01  1.20167762e-01  1.21713113e-01  1.25859979e-01
  1.39430475e-01  1.41283659e-01  1.42383840e-01  1.47651451e-01
  1.51497375e-01  1.55084392e-01  1.65935855e-01  1.66923540e-01
  1.67604252e-01  1.74981292e-01  1.77885989e-01  1.78824027e-01
  1.86065307e-01  1.87842172e-01  1.90442335e-01  1.91397089e-01
  1.93815273e-01  1.97696916e-01  2.01517030e-01  2.01570390e-01
  2.04147204e-01  2.11065962e-01  2.12087247e-01  2.21867798e-01
  2.22666100e-01  2.24216218e-01  2.26458837e-01  2.29652667e-01
  2.36028657e-01  2.37604180e-01  2.46520118e-01  2.50253549e-01
  2.55553826e-01  2.58127355e-01  2.60777348e-01  2.66723972e-01
  2.68399212e-01  2.77125727e-01  2.80923167e-01  2.82423718e-01
  2.88560250e-01  2.94408311e-01  2.98203327e-01  2.99869946e-01
  3.03237656e-01  3.06002632e-01  3.12036566e-01  3.14086958e-01
  3.19159356e-01  3.32268753e-01  3.34206820e-01  3.39599667e-01
  3.40699514e-01  3.42472423e-01  3.44962546e-01  3.50388954e-01
  3.51399839e-01  3.55084698e-01  3.64087100e-01  3.66438713e-01
  3.71871651e-01  3.73103281e-01  3.76475371e-01  3.85310202e-01
  3.89451570e-01  3.90343447e-01  3.94093692e-01  3.95166472e-01
  3.96180854e-01  4.03677937e-01  4.06769946e-01  4.09292328e-01
  4.10200679e-01  4.14282255e-01  4.19884705e-01  4.21246969e-01
  4.24458474e-01  4.33773445e-01  4.43084700e-01  4.43438659e-01
  4.45973727e-01  4.50248201e-01  4.56402686e-01  4.58418428e-01
  4.63018626e-01  4.69925297e-01  4.71642962e-01  4.73992086e-01
  4.75850946e-01  4.78593497e-01  4.81399938e-01  4.85585525e-01
  4.94391700e-01  4.98977819e-01  5.00567620e-01  5.02985397e-01
  5.04960136e-01  5.07842768e-01  5.09063544e-01  5.10376990e-01
  5.13927697e-01  5.19045404e-01  5.25724681e-01  5.30596757e-01
  5.33549150e-01  5.37163822e-01  5.43471763e-01  5.48408199e-01
  5.51081689e-01  5.55950767e-01  5.57913684e-01  5.69617369e-01
  5.74387235e-01  5.82540366e-01  5.86807847e-01  5.89573821e-01
  5.95886182e-01  5.97872608e-01  6.04439784e-01  6.05947858e-01
  6.10902914e-01  6.19811151e-01  6.30518295e-01  6.43594666e-01
  6.45440597e-01  6.49187364e-01  6.53512888e-01  6.56195077e-01
  6.66073155e-01  6.69099921e-01  6.70806159e-01  6.77783430e-01
  6.85723340e-01  6.88078816e-01  6.88833887e-01  6.94110188e-01
  6.95219300e-01  6.99191443e-01  7.02191175e-01  7.04478820e-01
  7.11515737e-01  7.17322678e-01  7.21194917e-01  7.23300646e-01
  7.25767833e-01  7.27881411e-01  7.32646556e-01  7.39875170e-01
  7.42798429e-01  7.46111116e-01  7.51283708e-01  7.57532023e-01
  7.61797586e-01  7.63644658e-01  7.69467285e-01  7.74515889e-01
  7.79205029e-01  7.80921882e-01  7.82823403e-01  7.85839679e-01
  7.88572905e-01  8.01757422e-01  8.08414697e-01  8.09584856e-01
  8.13104949e-01  8.17395691e-01  8.21665732e-01  8.22986237e-01
  8.27945894e-01  8.30166840e-01  8.32555798e-01  8.38239074e-01
  8.42588273e-01  8.43928160e-01  8.54021215e-01  8.57813261e-01
  8.59146512e-01  8.65561938e-01  8.71974864e-01  8.77243247e-01
  8.78674626e-01  8.81050014e-01  8.88414605e-01  8.91492646e-01
  8.96551529e-01  9.00619990e-01  9.07404644e-01  9.09548681e-01
  9.13566172e-01  9.15434937e-01  9.22283748e-01  9.27305163e-01
  9.29491453e-01  9.32354337e-01  9.36540565e-01  9.45922936e-01
  9.49241771e-01  9.51220390e-01  9.57203773e-01  9.59733219e-01
  9.61736204e-01  9.66931093e-01  9.73588320e-01  9.82176097e-01
  9.86057818e-01  9.92549453e-01  9.94250353e-01  9.94589837e-01
  9.97793287e-01  9.99052665e-01  1.00215009e+00  1.00710283e+00
  1.01047388e+00  1.01697577e+00  1.02144087e+00  1.02735139e+00
  1.02865968e+00  1.04084649e+00  1.04368742e+00  1.04971138e+00
  1.05420266e+00  1.05839856e+00  1.07010114e+00  1.07155850e+00
  1.07888473e+00  1.08604132e+00  1.08842375e+00  1.09390671e+00
  1.09647276e+00  1.09983928e+00  1.10729703e+00  1.11013813e+00
  1.11741556e+00  1.12314856e+00  1.12845834e+00  1.13068545e+00
  1.13725808e+00  1.13908812e+00  1.15381383e+00  1.15773075e+00
  1.16196362e+00  1.16736579e+00  1.17655305e+00  1.17789336e+00
  1.18979533e+00  1.19205707e+00  1.19577794e+00  1.20287762e+00
  1.20605073e+00  1.20746496e+00  1.20995263e+00  1.21347214e+00
  1.22300524e+00  1.23415986e+00  1.23926304e+00  1.24334009e+00
  1.24926800e+00  1.25510906e+00  1.25853419e+00  1.26554384e+00
  1.26860201e+00  1.27178454e+00  1.28711396e+00  1.29387241e+00
  1.29542764e+00  1.29945828e+00  1.30291317e+00  1.31151061e+00
  1.32266821e+00  1.33148147e+00  1.33924466e+00  1.35683248e+00
  1.36309998e+00  1.36705965e+00  1.37931819e+00  1.39257902e+00
  1.40081626e+00  1.42149556e+00  1.42855149e+00  1.47235735e+00
  1.49228826e+00  1.51237655e+00  1.53620221e+00  1.59035003e+00
  1.59173379e+00  1.61429454e+00  1.63876433e+00  1.67732712e+00
  1.71349536e+00  1.75096726e+00  1.80137205e+00  1.85995174e+00
  1.86795495e+00  1.89116891e+00  1.94510077e+00  1.99296040e+00
  2.04267827e+00  2.06035517e+00  2.13682719e+00  2.20649473e+00
  2.25992908e+00  2.30511103e+00  2.35185384e+00  2.39994770e+00
  2.44921186e+00  2.45336831e+00  2.48520724e+00  2.54112092e+00
  2.60582211e+00  2.66730522e+00  2.68170653e+00  2.68436055e+00
  2.73149586e+00  2.78614753e+00  2.82879937e+00  2.83418688e+00
  2.84651663e+00  2.87321085e+00  2.95048123e+00  2.96555101e+00
  3.00478290e+00  3.05343589e+00  3.07838509e+00  3.12332932e+00
  3.13776395e+00  3.17518554e+00  3.18270884e+00  3.19385103e+00
  3.23536890e+00  3.24066172e+00  3.28676389e+00  3.29956044e+00
  3.31360269e+00  3.31813095e+00  3.32053675e+00  3.34824738e+00
  3.36343003e+00  3.39722785e+00  3.40166303e+00  3.43212146e+00
  3.45768996e+00  3.47246554e+00  3.47582009e+00  3.50598306e+00
  3.51997046e+00  3.52483130e+00  3.53144730e+00  3.54036959e+00
  3.55819739e+00  3.61305359e+00  3.67205017e+00  3.68027661e+00
  3.68489160e+00  3.73775530e+00  3.76135788e+00  3.79381357e+00
  3.84909693e+00  3.86998602e+00  3.90273175e+00  3.91696179e+00
  3.95186841e+00  3.96263937e+00  4.00760481e+00  4.03837718e+00
  4.03941872e+00  4.05703300e+00  4.06611697e+00  4.09729167e+00
  4.14769327e+00  4.24285000e+00  4.27579829e+00  4.28361606e+00
  4.29429375e+00  4.37856865e+00  4.38770895e+00  4.42620338e+00
  4.43040073e+00  4.49826251e+00  4.52791153e+00  4.52954873e+00
  4.58963751e+00  4.63367987e+00  4.65278458e+00  4.66608392e+00
  4.70534094e+00  4.78416356e+00  4.81403085e+00  4.93650051e+00
  4.99359783e+00  5.02975946e+00  5.04955093e+00  5.11306818e+00
  5.12919270e+00  5.28896255e+00  5.31094002e+00  5.37012541e+00
  5.42240423e+00  5.42411514e+00  5.43048920e+00  5.47698584e+00
  5.50977387e+00  5.51223359e+00  5.57479055e+00  5.65112391e+00
  5.71032767e+00  5.73687008e+00  5.82067608e+00  5.83403118e+00
  5.94431883e+00  5.95101973e+00  6.02420767e+00  6.05195323e+00
  6.09514222e+00  6.11261104e+00  6.14571165e+00  6.16285278e+00
  6.24920505e+00  6.34392767e+00  6.40413818e+00  6.41449736e+00
  6.41907705e+00  6.53491224e+00  6.59698345e+00  6.63432636e+00
  6.68277728e+00  6.75859943e+00  6.82531874e+00  6.86734619e+00
  6.87091565e+00  6.95076983e+00  7.00363428e+00  7.10446999e+00
  7.14433969e+00  7.21753745e+00  7.24789876e+00  7.25621732e+00
  7.29158251e+00  7.36397240e+00  7.41421496e+00  7.44489063e+00
  7.60189827e+00  7.68708535e+00  7.80513426e+00  7.88830431e+00
  8.01035300e+00  8.37560557e+00  1.10541138e+01  1.30196218e+01
  1.32764736e+01  1.40154373e+01  1.58710486e+01  1.73494782e+01]
E1 = -1466.228176543515  E_coul = 596.7577602241258
cycle= 1 E= -414.886806849266  delta_E= 3.45  |g|= 0.928  |ddm|= 2.95
    CPU time for cycle= 1     71.80 sec, wall time      2.28 sec
diis-norm(errvec)=2.99997
diis-c [-8.99983932  1.        ]
  HOMO = -0.112249557994302  LUMO = 0.00359022898065864
  mo_energy =
[-2.06268158e+01 -2.06251221e+01 -2.03100460e+01 -1.17091910e+01
 -1.14623799e+01 -1.14613267e+01 -2.43285469e+00 -2.43005425e+00
 -2.42287349e+00 -2.41997519e+00 -2.41987311e+00 -2.40971158e+00
 -2.40719408e+00 -2.40412770e+00 -2.37771044e+00 -2.33616272e+00
 -1.71521212e+00 -1.53011513e+00 -1.47001743e+00 -1.21910129e+00
 -1.05490848e+00 -9.52383661e-01 -8.94005667e-01 -8.35139686e-01
 -8.02973067e-01 -7.33338983e-01 -7.26724946e-01 -6.61046605e-01
 -6.41425880e-01 -6.39405499e-01 -5.52357330e-01 -5.04152772e-01
 -4.69494611e-01 -2.34185294e-01 -1.85398091e-01 -1.73187482e-01
 -1.14019459e-01 -1.12249558e-01  3.59022898e-03  1.64343048e-02
  1.93582275e-02  2.12267789e-02  3.23142794e-02  3.49069109e-02
  3.63406458e-02  3.94149807e-02  3.98582753e-02  4.32883474e-02
  4.86075127e-02  5.68970628e-02  5.78389606e-02  6.05836656e-02
  6.25178467e-02  6.52121146e-02  6.78515381e-02  7.25889051e-02
  7.48632740e-02  7.72575765e-02  7.91669379e-02  8.18428855e-02
  8.57357493e-02  8.82554446e-02  8.98369869e-02  9.14876495e-02
  9.30466057e-02  9.54760728e-02  9.86687231e-02  1.00533061e-01
  1.03636951e-01  1.04485422e-01  1.06707384e-01  1.11826244e-01
  1.14437225e-01  1.16525525e-01  1.18882634e-01  1.22063532e-01
  1.25149876e-01  1.28942815e-01  1.34100030e-01  1.39972105e-01
  1.43400698e-01  1.46271770e-01  1.49996464e-01  1.53962526e-01
  1.55332181e-01  1.60261861e-01  1.63080327e-01  1.73648181e-01
  1.81614591e-01  1.84751216e-01  1.87326800e-01  1.91070077e-01
  1.96474065e-01  1.96884264e-01  2.03738400e-01  2.06530837e-01
  2.08379661e-01  2.10215746e-01  2.12877856e-01  2.14354431e-01
  2.22523900e-01  2.24804136e-01  2.33060054e-01  2.34453172e-01
  2.36441735e-01  2.42088930e-01  2.46392323e-01  2.49315035e-01
  2.51523034e-01  2.54731429e-01  2.62259445e-01  2.63240109e-01
  2.66032029e-01  2.67868491e-01  2.75966254e-01  2.78568137e-01
  2.88077998e-01  2.93052244e-01  2.96248311e-01  2.98948396e-01
  3.03326119e-01  3.08074039e-01  3.10983930e-01  3.12083377e-01
  3.15722201e-01  3.22267828e-01  3.23547246e-01  3.28820796e-01
  3.31091791e-01  3.37526814e-01  3.41799667e-01  3.43958356e-01
  3.53949938e-01  3.55358634e-01  3.57316261e-01  3.64639656e-01
  3.75658371e-01  3.82002403e-01  3.87797291e-01  3.90185474e-01
  3.95270307e-01  3.97401300e-01  4.00262710e-01  4.03426631e-01
  4.05085117e-01  4.09509829e-01  4.10453639e-01  4.18510041e-01
  4.24510054e-01  4.26250777e-01  4.27270157e-01  4.30878630e-01
  4.32913231e-01  4.36218067e-01  4.45408052e-01  4.50156251e-01
  4.52329509e-01  4.54427692e-01  4.60979075e-01  4.64072846e-01
  4.67787947e-01  4.72565242e-01  4.75569630e-01  4.78898757e-01
  4.80830746e-01  4.87339002e-01  4.93246305e-01  4.94879697e-01
  4.95577988e-01  4.98229536e-01  5.01543749e-01  5.06199154e-01
  5.10650151e-01  5.11587290e-01  5.20020261e-01  5.20812767e-01
  5.23351476e-01  5.29389400e-01  5.34848680e-01  5.42649867e-01
  5.44356897e-01  5.47666380e-01  5.50599832e-01  5.53632374e-01
  5.54016711e-01  5.62091179e-01  5.66405960e-01  5.71090908e-01
  5.75211517e-01  5.79261268e-01  5.81567484e-01  5.85328374e-01
  5.86196684e-01  5.93776671e-01  6.00495266e-01  6.01965569e-01
  6.07947271e-01  6.12499305e-01  6.21041342e-01  6.26888330e-01
  6.28670720e-01  6.33514146e-01  6.36532480e-01  6.42303685e-01
  6.46141635e-01  6.56836410e-01  6.63036140e-01  6.65356434e-01
  6.74472461e-01  6.79433880e-01  6.81980792e-01  6.99369879e-01
  7.06796113e-01  7.12532067e-01  7.20349463e-01  7.29125471e-01
  7.30859833e-01  7.37622111e-01  7.41694110e-01  7.50914142e-01
  7.56465849e-01  7.61618394e-01  7.63309186e-01  7.66668355e-01
  7.68153028e-01  7.69484749e-01  7.72757224e-01  7.80105814e-01
  7.81204809e-01  7.82981771e-01  7.87650221e-01  7.92125974e-01
  7.95006997e-01  8.00834798e-01  8.03320453e-01  8.09350629e-01
  8.10959833e-01  8.14729485e-01  8.22579561e-01  8.26404145e-01
  8.29942593e-01  8.38607555e-01  8.39702999e-01  8.41580699e-01
  8.44664380e-01  8.46497340e-01  8.49640844e-01  8.54476674e-01
  8.70334028e-01  8.72118266e-01  8.75054179e-01  8.77325657e-01
  8.79194487e-01  8.80621463e-01  8.84348682e-01  8.90092334e-01
  8.91877568e-01  8.94703436e-01  9.00462634e-01  9.05854359e-01
  9.07805267e-01  9.16624534e-01  9.17412474e-01  9.21914009e-01
  9.26749435e-01  9.29817012e-01  9.35852225e-01  9.40317036e-01
  9.43586848e-01  9.47834694e-01  9.54100887e-01  9.61299603e-01
  9.70188879e-01  9.75746313e-01  9.77266702e-01  9.78325183e-01
  9.80644826e-01  9.84295130e-01  9.88537187e-01  9.95929373e-01
  1.00077311e+00  1.00457082e+00  1.00761874e+00  1.00900126e+00
  1.01623411e+00  1.01881891e+00  1.01964225e+00  1.02365536e+00
  1.02960694e+00  1.03602696e+00  1.03704348e+00  1.04912047e+00
  1.05140183e+00  1.05243046e+00  1.05625141e+00  1.05978285e+00
  1.06446564e+00  1.06788275e+00  1.07119878e+00  1.07357294e+00
  1.07525575e+00  1.08412724e+00  1.09050170e+00  1.09875679e+00
  1.10328684e+00  1.10583662e+00  1.11919801e+00  1.12494528e+00
  1.13182141e+00  1.13664086e+00  1.14144378e+00  1.14286686e+00
  1.15100880e+00  1.15429493e+00  1.15909762e+00  1.16526941e+00
  1.17437658e+00  1.17724073e+00  1.18287233e+00  1.18473705e+00
  1.19320092e+00  1.19689952e+00  1.19878345e+00  1.20518587e+00
  1.21402925e+00  1.21513584e+00  1.21877256e+00  1.23224524e+00
  1.23983090e+00  1.24265363e+00  1.24894166e+00  1.25167878e+00
  1.25581932e+00  1.25836654e+00  1.26283988e+00  1.26824953e+00
  1.27282395e+00  1.28056175e+00  1.28428626e+00  1.28939400e+00
  1.29052425e+00  1.30036129e+00  1.30375458e+00  1.31366217e+00
  1.32057630e+00  1.32542577e+00  1.32757223e+00  1.34663566e+00
  1.35044285e+00  1.35431777e+00  1.35895893e+00  1.35928016e+00
  1.37745807e+00  1.38160051e+00  1.38996131e+00  1.40249462e+00
  1.41187620e+00  1.42184693e+00  1.44638769e+00  1.44850060e+00
  1.45348733e+00  1.46374431e+00  1.46699230e+00  1.49513483e+00
  1.49663361e+00  1.50048176e+00  1.53401153e+00  1.53948796e+00
  1.59261338e+00  1.61276795e+00  1.63012430e+00  1.63992775e+00
  1.70072538e+00  1.75239819e+00  1.82548623e+00  1.84981714e+00
  1.85181010e+00  1.93253743e+00  1.95228335e+00  1.97165642e+00
  2.03374688e+00  2.11799890e+00  2.16384670e+00  2.21792048e+00
  2.23463654e+00  2.29228824e+00  2.35056668e+00  2.37531977e+00
  2.41934905e+00  2.44679686e+00  2.47467855e+00  2.50272319e+00
  2.55542710e+00  2.59366316e+00  2.64489627e+00  2.65086331e+00
  2.71903718e+00  2.73268592e+00  2.75754444e+00  2.79489153e+00
  2.81727142e+00  2.82418768e+00  2.92626967e+00  2.93878482e+00
  2.98305035e+00  2.98982864e+00  3.02924169e+00  3.05011306e+00
  3.08026626e+00  3.11621719e+00  3.13482340e+00  3.15151981e+00
  3.22389756e+00  3.22717677e+00  3.24334941e+00  3.25025366e+00
  3.25524222e+00  3.26675145e+00  3.29281769e+00  3.30512776e+00
  3.35610059e+00  3.37759722e+00  3.38536988e+00  3.39504123e+00
  3.40483243e+00  3.40983997e+00  3.46860865e+00  3.48242301e+00
  3.49858224e+00  3.52498523e+00  3.54545315e+00  3.58473200e+00
  3.59247940e+00  3.61066487e+00  3.63420624e+00  3.65248197e+00
  3.65864259e+00  3.70388518e+00  3.72620161e+00  3.74360092e+00
  3.79715542e+00  3.80955893e+00  3.84403119e+00  3.86060397e+00
  3.90151016e+00  3.91471871e+00  3.96574802e+00  3.99774422e+00
  4.00759036e+00  4.03662661e+00  4.04528705e+00  4.10411824e+00
  4.14402483e+00  4.20251403e+00  4.24207081e+00  4.24362835e+00
  4.24827190e+00  4.33934983e+00  4.34648442e+00  4.36890935e+00
  4.39387158e+00  4.45168203e+00  4.46686803e+00  4.47485445e+00
  4.59616552e+00  4.61678267e+00  4.63565824e+00  4.76132277e+00
  4.79369686e+00  4.80105330e+00  4.88852660e+00  4.89373316e+00
  4.95909010e+00  5.00175341e+00  5.03532581e+00  5.09798242e+00
  5.16199037e+00  5.27945728e+00  5.27995555e+00  5.34042102e+00
  5.38630506e+00  5.45266341e+00  5.46517039e+00  5.47393223e+00
  5.58684790e+00  5.64886828e+00  5.65593400e+00  5.69113375e+00
  5.71389155e+00  5.72927735e+00  5.79793117e+00  5.87319020e+00
  5.93800154e+00  5.97022841e+00  6.03257418e+00  6.05467284e+00
  6.08786661e+00  6.12172486e+00  6.16831724e+00  6.20435263e+00
  6.23001261e+00  6.34985470e+00  6.39817143e+00  6.42163301e+00
  6.43373782e+00  6.56751613e+00  6.60407057e+00  6.72041711e+00
  6.79822375e+00  6.83120290e+00  6.89511271e+00  7.06823828e+00
  7.07746329e+00  7.10269749e+00  7.15247092e+00  7.19232102e+00
  7.23019311e+00  7.27815300e+00  7.32117483e+00  7.35059447e+00
  7.42615393e+00  7.52097057e+00  7.56309090e+00  7.58952488e+00
  7.75105041e+00  7.75651296e+00  7.99019193e+00  8.02958180e+00
  8.07934842e+00  8.46419366e+00  1.10773636e+01  1.30433321e+01
  1.33198052e+01  1.40000646e+01  1.57711969e+01  1.73745557e+01]
E1 = -1466.8794950921117  E_coul = 597.273872847495
cycle= 2 E= -415.022012774494  delta_E= -0.135  |g|= 0.547  |ddm|= 1.03
    CPU time for cycle= 2     72.41 sec, wall time      2.29 sec
diis-norm(errvec)=1.75697
diis-c [-0.82735394  0.34461435  0.65538565]
  HOMO = -0.128960262456051  LUMO = -0.0031535790246185
  mo_energy =
[-2.06532495e+01 -2.06530164e+01 -2.06449720e+01 -1.14552118e+01
 -1.13166389e+01 -1.13156024e+01 -2.43782922e+00 -2.43698946e+00
 -2.43665055e+00 -2.43376022e+00 -2.43317740e+00 -2.43090508e+00
 -2.43086103e+00 -2.42325840e+00 -2.41754915e+00 -2.41659780e+00
 -1.64696173e+00 -1.50822124e+00 -1.47707384e+00 -1.14201600e+00
 -9.95959686e-01 -9.06624824e-01 -8.40842333e-01 -8.21218500e-01
 -7.61327320e-01 -7.35591892e-01 -6.98950529e-01 -6.86050271e-01
 -6.16225870e-01 -5.90541810e-01 -5.61205894e-01 -5.44212955e-01
 -5.11897766e-01 -2.56918569e-01 -2.03293589e-01 -1.90949790e-01
 -1.29877928e-01 -1.28960262e-01 -3.15357902e-03  1.07291583e-02
  1.42476697e-02  1.62565221e-02  2.94934002e-02  3.09746164e-02
  3.18271730e-02  3.33940372e-02  3.40137163e-02  3.93655082e-02
  4.60694201e-02  5.32239750e-02  5.59277005e-02  5.81799315e-02
  6.04863227e-02  6.30547301e-02  6.56896392e-02  6.89874982e-02
  7.13541192e-02  7.51650990e-02  7.62245116e-02  7.94267860e-02
  8.11387276e-02  8.55942167e-02  8.61974009e-02  8.82632222e-02
  8.85879374e-02  8.93519754e-02  9.59406101e-02  9.94105020e-02
  1.00111681e-01  1.02794421e-01  1.05345886e-01  1.09618675e-01
  1.09964036e-01  1.13419745e-01  1.15838894e-01  1.17859222e-01
  1.24421514e-01  1.25527234e-01  1.32414213e-01  1.35910370e-01
  1.42205341e-01  1.43847887e-01  1.45826423e-01  1.47382889e-01
  1.53658909e-01  1.58844116e-01  1.70060228e-01  1.80966495e-01
  1.81733956e-01  1.82772476e-01  1.88083349e-01  1.94336110e-01
  1.96089982e-01  1.97943442e-01  1.99813365e-01  2.03846787e-01
  2.04701960e-01  2.07097360e-01  2.08115131e-01  2.11566547e-01
  2.18494639e-01  2.23553447e-01  2.26372535e-01  2.27881578e-01
  2.30247544e-01  2.37335760e-01  2.40177898e-01  2.42569233e-01
  2.45878154e-01  2.49616135e-01  2.53490857e-01  2.54084982e-01
  2.58574163e-01  2.62420419e-01  2.71000639e-01  2.75444376e-01
  2.79541972e-01  2.91221880e-01  2.94486105e-01  2.96492232e-01
  3.00771050e-01  3.03878590e-01  3.09393649e-01  3.11067310e-01
  3.14715039e-01  3.15760808e-01  3.18466664e-01  3.23186829e-01
  3.28810728e-01  3.31522508e-01  3.37826279e-01  3.42094337e-01
  3.45169741e-01  3.46596684e-01  3.47443246e-01  3.56616011e-01
  3.67284131e-01  3.73304522e-01  3.79605927e-01  3.80100042e-01
  3.80333192e-01  3.90503399e-01  3.92416526e-01  4.00456741e-01
  4.00710012e-01  4.06296230e-01  4.13632368e-01  4.16573465e-01
  4.17289096e-01  4.19933937e-01  4.21673439e-01  4.26773256e-01
  4.29240623e-01  4.33365391e-01  4.38460877e-01  4.39599645e-01
  4.42193347e-01  4.48558442e-01  4.49595480e-01  4.54520200e-01
  4.55854648e-01  4.60490544e-01  4.67578747e-01  4.72578594e-01
  4.74366279e-01  4.82825906e-01  4.85318187e-01  4.89943703e-01
  4.91776970e-01  4.94759997e-01  5.00436038e-01  5.03562398e-01
  5.08246981e-01  5.12042127e-01  5.13058464e-01  5.22447480e-01
  5.28151538e-01  5.31542628e-01  5.33470137e-01  5.36876122e-01
  5.38308094e-01  5.39360320e-01  5.43721388e-01  5.46454724e-01
  5.54886979e-01  5.56061123e-01  5.58802609e-01  5.60931450e-01
  5.66337840e-01  5.69168738e-01  5.72499655e-01  5.82407671e-01
  5.85800455e-01  5.88418731e-01  5.95582593e-01  5.97498455e-01
  6.05846993e-01  6.19246330e-01  6.22333914e-01  6.27521726e-01
  6.29329182e-01  6.32338734e-01  6.41439499e-01  6.42037456e-01
  6.49173613e-01  6.53665235e-01  6.60956613e-01  6.63974559e-01
  6.75258079e-01  6.84398895e-01  6.93280397e-01  6.94947450e-01
  7.06696189e-01  7.08840650e-01  7.15390888e-01  7.17795093e-01
  7.28350622e-01  7.34635469e-01  7.36308366e-01  7.40993044e-01
  7.43207623e-01  7.49208782e-01  7.50650440e-01  7.53708711e-01
  7.56226900e-01  7.59246070e-01  7.64995438e-01  7.67328632e-01
  7.68766345e-01  7.72843822e-01  7.75934084e-01  7.80502765e-01
  7.84173278e-01  7.89024252e-01  7.94994152e-01  7.97862506e-01
  7.99608777e-01  8.02312143e-01  8.11772572e-01  8.15424833e-01
  8.20600539e-01  8.24399059e-01  8.26575338e-01  8.30381477e-01
  8.31205646e-01  8.35299759e-01  8.42117505e-01  8.49912770e-01
  8.58471996e-01  8.60329743e-01  8.63953207e-01  8.64795298e-01
  8.67312544e-01  8.69387619e-01  8.75865028e-01  8.78179147e-01
  8.79754063e-01  8.84369209e-01  8.87779396e-01  8.96716440e-01
  9.03126197e-01  9.06983267e-01  9.13838419e-01  9.16633493e-01
  9.18389661e-01  9.21520001e-01  9.23463235e-01  9.28903534e-01
  9.34735352e-01  9.40134223e-01  9.42172828e-01  9.50473722e-01
  9.56601918e-01  9.61518359e-01  9.64479531e-01  9.67151645e-01
  9.72171530e-01  9.73737419e-01  9.83036852e-01  9.87440199e-01
  9.90607956e-01  9.93877331e-01  9.99164738e-01  1.00367765e+00
  1.00515339e+00  1.00590354e+00  1.01356859e+00  1.01471544e+00
  1.02055685e+00  1.02974437e+00  1.03352220e+00  1.03432824e+00
  1.03859269e+00  1.04286605e+00  1.04713318e+00  1.04954161e+00
  1.05142850e+00  1.05314315e+00  1.05624705e+00  1.06049361e+00
  1.06373435e+00  1.07339865e+00  1.07597506e+00  1.08128115e+00
  1.09087519e+00  1.09798289e+00  1.10161544e+00  1.11229388e+00
  1.12100706e+00  1.12299521e+00  1.13064677e+00  1.13324356e+00
  1.13508270e+00  1.14010378e+00  1.14941845e+00  1.15720499e+00
  1.16160834e+00  1.16519444e+00  1.17779176e+00  1.17987265e+00
  1.18348607e+00  1.18799035e+00  1.19429821e+00  1.20219456e+00
  1.20882499e+00  1.21147170e+00  1.21914044e+00  1.22353623e+00
  1.22567660e+00  1.23185312e+00  1.23712293e+00  1.24061158e+00
  1.24934257e+00  1.25323564e+00  1.25676738e+00  1.26082929e+00
  1.26279593e+00  1.27039543e+00  1.27919212e+00  1.28160315e+00
  1.28343781e+00  1.29146191e+00  1.29408404e+00  1.30041908e+00
  1.30382149e+00  1.30933788e+00  1.32125461e+00  1.32340257e+00
  1.33052844e+00  1.33620103e+00  1.34141308e+00  1.34828057e+00
  1.36966139e+00  1.37685704e+00  1.39104535e+00  1.40491310e+00
  1.40926879e+00  1.40958756e+00  1.42040605e+00  1.42712153e+00
  1.42751659e+00  1.44135860e+00  1.46151300e+00  1.46188884e+00
  1.50924685e+00  1.51416981e+00  1.53067666e+00  1.56942728e+00
  1.59929471e+00  1.61997934e+00  1.65213979e+00  1.66404105e+00
  1.72198494e+00  1.79534174e+00  1.81875168e+00  1.86742653e+00
  1.87642541e+00  1.91048354e+00  1.96955512e+00  1.99706774e+00
  2.06958250e+00  2.09747961e+00  2.15483148e+00  2.23558476e+00
  2.27601882e+00  2.32720067e+00  2.37930956e+00  2.42154304e+00
  2.45560087e+00  2.46886207e+00  2.50159148e+00  2.53754052e+00
  2.60757873e+00  2.65787676e+00  2.67711454e+00  2.70707334e+00
  2.74628251e+00  2.78446761e+00  2.82869510e+00  2.85631869e+00
  2.86023003e+00  2.87057402e+00  2.96754593e+00  2.99104277e+00
  3.00370541e+00  3.05254765e+00  3.08652811e+00  3.11819581e+00
  3.13233982e+00  3.17906887e+00  3.19612292e+00  3.21969280e+00
  3.23770830e+00  3.27957350e+00  3.29169064e+00  3.29751792e+00
  3.31246402e+00  3.32663461e+00  3.34495301e+00  3.37106221e+00
  3.37749799e+00  3.38120120e+00  3.40863131e+00  3.44009276e+00
  3.46322059e+00  3.46872795e+00  3.51065943e+00  3.52646077e+00
  3.52686807e+00  3.54771322e+00  3.57389152e+00  3.57776799e+00
  3.60849877e+00  3.62424175e+00  3.66965763e+00  3.69111844e+00
  3.69314498e+00  3.75592762e+00  3.76737936e+00  3.80002619e+00
  3.85261245e+00  3.85343536e+00  3.89048943e+00  3.91555918e+00
  3.95408329e+00  3.96040512e+00  4.01495041e+00  4.03891636e+00
  4.05357007e+00  4.07048488e+00  4.08666507e+00  4.09255212e+00
  4.15020284e+00  4.24336708e+00  4.27704182e+00  4.28482271e+00
  4.28993350e+00  4.38289903e+00  4.38746602e+00  4.42390728e+00
  4.43157697e+00  4.49746200e+00  4.51321944e+00  4.51648636e+00
  4.64989591e+00  4.66489495e+00  4.67500366e+00  4.69528642e+00
  4.75702155e+00  4.81477208e+00  4.82969222e+00  4.94424170e+00
  5.00661765e+00  5.05016446e+00  5.07909192e+00  5.13986597e+00
  5.16017276e+00  5.32058298e+00  5.33217558e+00  5.39116660e+00
  5.43488161e+00  5.47565201e+00  5.48419863e+00  5.52519421e+00
  5.56534986e+00  5.59263934e+00  5.60171194e+00  5.68052106e+00
  5.74649330e+00  5.75033653e+00  5.84519241e+00  5.87176272e+00
  5.98153875e+00  5.99157524e+00  6.08587264e+00  6.10377690e+00
  6.11715492e+00  6.14305572e+00  6.19960349e+00  6.20637953e+00
  6.28061857e+00  6.39056146e+00  6.44641267e+00  6.45837436e+00
  6.46230641e+00  6.58916191e+00  6.64448351e+00  6.71259806e+00
  6.78834205e+00  6.83983686e+00  6.89777168e+00  6.95866410e+00
  6.98008487e+00  7.03399020e+00  7.08951406e+00  7.19438330e+00
  7.22523305e+00  7.29882611e+00  7.33319445e+00  7.34783490e+00
  7.41358602e+00  7.45003096e+00  7.51065476e+00  7.52612054e+00
  7.71989267e+00  7.76540744e+00  7.90696524e+00  7.98414276e+00
  8.08660710e+00  8.44969547e+00  1.10972820e+01  1.30679455e+01
  1.33447317e+01  1.40462980e+01  1.58811910e+01  1.73795958e+01]
E1 = -1467.2981895813625  E_coul = 597.6408226805721
cycle= 3 E= -415.073757430667  delta_E= -0.0517  |g|= 0.0885  |ddm|= 0.295
    CPU time for cycle= 3     72.42 sec, wall time      2.28 sec
diis-norm(errvec)=0.305477
diis-c [-0.0552339  -0.07487287 -0.0106319   1.08550476]
  HOMO = -0.127198192333462  LUMO = 0.00120728465525292
  mo_energy =
[-2.06625484e+01 -2.06614605e+01 -2.05569920e+01 -1.14481574e+01
 -1.13072774e+01 -1.13062302e+01 -2.43081572e+00 -2.43067223e+00
 -2.43030938e+00 -2.42824507e+00 -2.42715337e+00 -2.42664368e+00
 -2.42143939e+00 -2.42102568e+00 -2.41230069e+00 -2.40548993e+00
 -1.64278836e+00 -1.48228678e+00 -1.47842007e+00 -1.13368762e+00
 -9.89891652e-01 -9.03973130e-01 -8.36531416e-01 -8.06857912e-01
 -7.52700495e-01 -7.20593335e-01 -6.86205415e-01 -6.84629923e-01
 -6.20612770e-01 -5.89027936e-01 -5.39487436e-01 -5.27984396e-01
 -5.10786426e-01 -2.49522566e-01 -1.99596999e-01 -1.85947164e-01
 -1.28539579e-01 -1.27198192e-01  1.20728466e-03  1.46047732e-02
  1.65329065e-02  1.80600891e-02  3.07613737e-02  3.21675843e-02
  3.39117081e-02  3.50218035e-02  3.53427494e-02  4.02014872e-02
  4.63971737e-02  5.44454310e-02  5.68323761e-02  5.92591486e-02
  6.13943320e-02  6.46026770e-02  6.88338709e-02  6.97211646e-02
  7.30402475e-02  7.61038658e-02  7.70738331e-02  8.02978293e-02
  8.28581477e-02  8.68097141e-02  8.76587892e-02  8.96579354e-02
  8.99142650e-02  9.15361281e-02  9.63016694e-02  1.00732393e-01
  1.01008418e-01  1.03768620e-01  1.05910785e-01  1.10383657e-01
  1.11618054e-01  1.14216411e-01  1.16333099e-01  1.18784968e-01
  1.27027273e-01  1.28413674e-01  1.34962930e-01  1.38214179e-01
  1.43845125e-01  1.45963813e-01  1.48633182e-01  1.50153200e-01
  1.56686758e-01  1.62239239e-01  1.71271783e-01  1.84109274e-01
  1.84826467e-01  1.85263726e-01  1.91433768e-01  1.97330954e-01
  1.99436899e-01  2.00757177e-01  2.04171609e-01  2.06006685e-01
  2.08732835e-01  2.09679328e-01  2.11924003e-01  2.14901589e-01
  2.20624680e-01  2.26406999e-01  2.28341338e-01  2.30995948e-01
  2.34071233e-01  2.40311367e-01  2.43393338e-01  2.45824523e-01
  2.49118631e-01  2.53281961e-01  2.55781957e-01  2.56538476e-01
  2.61499413e-01  2.66254031e-01  2.74468556e-01  2.77472850e-01
  2.82279636e-01  2.94099743e-01  2.97105741e-01  2.99713496e-01
  3.04137153e-01  3.07344083e-01  3.13025565e-01  3.13620903e-01
  3.17062818e-01  3.18795751e-01  3.22888563e-01  3.25575829e-01
  3.31857547e-01  3.34060124e-01  3.40370722e-01  3.45256623e-01
  3.48138037e-01  3.50549666e-01  3.51287873e-01  3.58571027e-01
  3.70572253e-01  3.76258953e-01  3.82369719e-01  3.83157039e-01
  3.83365938e-01  3.94101448e-01  3.95703945e-01  4.03343495e-01
  4.04150924e-01  4.09719120e-01  4.16560285e-01  4.19502994e-01
  4.19933260e-01  4.22813906e-01  4.26397192e-01  4.29738899e-01
  4.34134535e-01  4.37982080e-01  4.41814588e-01  4.43176191e-01
  4.46160884e-01  4.51351565e-01  4.53481888e-01  4.57823434e-01
  4.59172919e-01  4.66051003e-01  4.69241781e-01  4.75431865e-01
  4.77630903e-01  4.85742633e-01  4.87564216e-01  4.92772145e-01
  4.95351440e-01  4.98111806e-01  5.03342599e-01  5.07766903e-01
  5.12787719e-01  5.15811522e-01  5.16927325e-01  5.24217349e-01
  5.32235859e-01  5.35814280e-01  5.38070335e-01  5.40858052e-01
  5.42398176e-01  5.44379581e-01  5.48201872e-01  5.52337979e-01
  5.59340704e-01  5.61442205e-01  5.62059064e-01  5.65936779e-01
  5.69434951e-01  5.72425721e-01  5.77938609e-01  5.86194661e-01
  5.88403786e-01  5.94714471e-01  6.00196859e-01  6.00699870e-01
  6.10239808e-01  6.23929113e-01  6.27165480e-01  6.32533970e-01
  6.33890025e-01  6.38112401e-01  6.46347187e-01  6.47813132e-01
  6.54265476e-01  6.59404123e-01  6.67553234e-01  6.69549358e-01
  6.80931022e-01  6.89835140e-01  6.97855618e-01  7.00824619e-01
  7.11276530e-01  7.13374447e-01  7.20555057e-01  7.24450809e-01
  7.33765589e-01  7.39064973e-01  7.40500114e-01  7.45038014e-01
  7.47401882e-01  7.54004004e-01  7.56934468e-01  7.59858441e-01
  7.61527853e-01  7.64717372e-01  7.70078030e-01  7.71891767e-01
  7.73798202e-01  7.78505215e-01  7.81178241e-01  7.85469800e-01
  7.89465268e-01  7.94025153e-01  8.00266915e-01  8.02052002e-01
  8.04968893e-01  8.06980779e-01  8.15208428e-01  8.18784664e-01
  8.23391656e-01  8.28045258e-01  8.28708197e-01  8.34233414e-01
  8.36437011e-01  8.39050214e-01  8.46572578e-01  8.53579686e-01
  8.62301857e-01  8.64302071e-01  8.67487101e-01  8.69665037e-01
  8.71612055e-01  8.74246177e-01  8.79150049e-01  8.82962634e-01
  8.84038324e-01  8.89126486e-01  8.91480433e-01  9.00961020e-01
  9.06850314e-01  9.12121513e-01  9.18005402e-01  9.21323920e-01
  9.22159431e-01  9.26333472e-01  9.26972738e-01  9.33665622e-01
  9.39633495e-01  9.43869372e-01  9.46413664e-01  9.54558252e-01
  9.61015123e-01  9.66048927e-01  9.68421195e-01  9.71934349e-01
  9.77670326e-01  9.78786012e-01  9.88704355e-01  9.92407440e-01
  9.95512158e-01  9.98528561e-01  1.00384669e+00  1.00782444e+00
  1.01064860e+00  1.01141830e+00  1.01940769e+00  1.01983388e+00
  1.02583509e+00  1.03508984e+00  1.03886879e+00  1.03965544e+00
  1.04328627e+00  1.04816386e+00  1.05389693e+00  1.05440154e+00
  1.05557295e+00  1.05810218e+00  1.06048569e+00  1.06577766e+00
  1.06917180e+00  1.07796670e+00  1.08108997e+00  1.08641819e+00
  1.09505906e+00  1.10289700e+00  1.10682235e+00  1.11681452e+00
  1.12633651e+00  1.12822211e+00  1.13585845e+00  1.13879352e+00
  1.14064875e+00  1.14618992e+00  1.15508481e+00  1.16330325e+00
  1.16695309e+00  1.17148576e+00  1.18204529e+00  1.18647258e+00
  1.18910330e+00  1.19456070e+00  1.20123503e+00  1.20772867e+00
  1.21462756e+00  1.21777170e+00  1.22573993e+00  1.23004457e+00
  1.23244749e+00  1.23628667e+00  1.24315651e+00  1.24693258e+00
  1.25569288e+00  1.25904480e+00  1.26398778e+00  1.26764214e+00
  1.27082025e+00  1.27808000e+00  1.28676753e+00  1.28853955e+00
  1.28955433e+00  1.29851491e+00  1.30090543e+00  1.30749058e+00
  1.31092798e+00  1.31569703e+00  1.32825730e+00  1.32962014e+00
  1.33594623e+00  1.34277978e+00  1.34806931e+00  1.35504506e+00
  1.37973829e+00  1.38352978e+00  1.39922241e+00  1.41137398e+00
  1.41630855e+00  1.41914010e+00  1.42872317e+00  1.43360948e+00
  1.43567234e+00  1.44869680e+00  1.46811081e+00  1.46917745e+00
  1.51587963e+00  1.52079487e+00  1.53780537e+00  1.57485276e+00
  1.60582308e+00  1.62367076e+00  1.66107973e+00  1.66953631e+00
  1.72827893e+00  1.80399570e+00  1.83161254e+00  1.87431132e+00
  1.88335516e+00  1.92041661e+00  1.98072692e+00  2.00032334e+00
  2.07355585e+00  2.11161780e+00  2.16155020e+00  2.24425886e+00
  2.27647076e+00  2.33276449e+00  2.38561145e+00  2.43132038e+00
  2.46103588e+00  2.47527308e+00  2.50925751e+00  2.54274596e+00
  2.61284565e+00  2.66573342e+00  2.68616847e+00  2.71480826e+00
  2.75711093e+00  2.79293857e+00  2.83454117e+00  2.86075384e+00
  2.86941602e+00  2.87894205e+00  2.97602006e+00  2.99850701e+00
  3.01116847e+00  3.06072960e+00  3.09475901e+00  3.12550216e+00
  3.13861775e+00  3.18728241e+00  3.20558811e+00  3.22336425e+00
  3.24204277e+00  3.28683430e+00  3.29996778e+00  3.30362246e+00
  3.32137716e+00  3.33344086e+00  3.35282378e+00  3.37310304e+00
  3.38250873e+00  3.38661169e+00  3.41646068e+00  3.44938983e+00
  3.47227191e+00  3.47689170e+00  3.51712248e+00  3.53335630e+00
  3.53437300e+00  3.55422641e+00  3.58133534e+00  3.58667241e+00
  3.61532366e+00  3.63017148e+00  3.67677641e+00  3.70034352e+00
  3.70468783e+00  3.77007272e+00  3.77424899e+00  3.80741232e+00
  3.86081123e+00  3.86354762e+00  3.90031808e+00  3.92491163e+00
  3.96144366e+00  3.97073297e+00  4.02459031e+00  4.04983571e+00
  4.06223269e+00  4.08064285e+00  4.09610715e+00  4.10210609e+00
  4.16094666e+00  4.25329828e+00  4.28824168e+00  4.29146696e+00
  4.29913104e+00  4.39221470e+00  4.39844082e+00  4.43306405e+00
  4.44364504e+00  4.50631493e+00  4.52315831e+00  4.52600903e+00
  4.65949373e+00  4.68037421e+00  4.68634936e+00  4.72680391e+00
  4.78154687e+00  4.82754633e+00  4.83612620e+00  4.95212782e+00
  5.01570325e+00  5.05631056e+00  5.08888905e+00  5.14879961e+00
  5.17585155e+00  5.32853399e+00  5.33884272e+00  5.40271596e+00
  5.44510972e+00  5.49103287e+00  5.49369740e+00  5.53573026e+00
  5.59406901e+00  5.61723571e+00  5.62076770e+00  5.69349242e+00
  5.75519078e+00  5.75966312e+00  5.85341243e+00  5.88355651e+00
  5.98639638e+00  6.00535389e+00  6.09362343e+00  6.12347982e+00
  6.12618820e+00  6.14906621e+00  6.20615011e+00  6.21571791e+00
  6.28877803e+00  6.39498356e+00  6.45356156e+00  6.46365630e+00
  6.46726114e+00  6.59725779e+00  6.65043372e+00  6.72745319e+00
  6.80991031e+00  6.85161063e+00  6.91008742e+00  6.98535700e+00
  7.01604050e+00  7.05551748e+00  7.11196349e+00  7.20195967e+00
  7.23066697e+00  7.30328111e+00  7.33097062e+00  7.34968544e+00
  7.43075475e+00  7.46905781e+00  7.52559242e+00  7.52884739e+00
  7.73830894e+00  7.76421144e+00  7.92906723e+00  7.99489855e+00
  8.08714087e+00  8.46818279e+00  1.11049423e+01  1.30827353e+01
  1.33422237e+01  1.40587478e+01  1.58895390e+01  1.74079175e+01]
E1 = -1467.1602106006221  E_coul = 597.4996828620276
cycle= 4 E= -415.076918268471  delta_E= -0.00316  |g|= 0.0381  |ddm|= 0.17
    CPU time for cycle= 4     72.45 sec, wall time      2.29 sec
diis-norm(errvec)=0.123664
diis-c [-0.00815379 -0.03817635 -0.04163635  0.28332928  0.79648342]
  HOMO = -0.128066358262974  LUMO = 0.00122453132799716
  mo_energy =
[-2.06483988e+01 -2.06478614e+01 -2.05878637e+01 -1.14567794e+01
 -1.13146043e+01 -1.13135546e+01 -2.43381291e+00 -2.43076206e+00
 -2.43035349e+00 -2.42632236e+00 -2.42572175e+00 -2.42529485e+00
 -2.42259629e+00 -2.42207964e+00 -2.41262480e+00 -2.40873781e+00
 -1.64286073e+00 -1.49250624e+00 -1.47538393e+00 -1.13551732e+00
 -9.89940485e-01 -9.02561755e-01 -8.36761087e-01 -8.10921658e-01
 -7.54389916e-01 -7.27209126e-01 -6.90186956e-01 -6.83845495e-01
 -6.16840032e-01 -5.90349196e-01 -5.47977814e-01 -5.33034296e-01
 -5.10132155e-01 -2.49832474e-01 -1.99465874e-01 -1.86832982e-01
 -1.29138707e-01 -1.28066358e-01  1.22453133e-03  1.44836665e-02
  1.66426146e-02  1.83134265e-02  3.08244756e-02  3.21875499e-02
  3.37391946e-02  3.49390302e-02  3.53727205e-02  4.02114542e-02
  4.62402093e-02  5.44319197e-02  5.66474857e-02  5.92827267e-02
  6.14036354e-02  6.46012617e-02  6.87041814e-02  6.97324766e-02
  7.31997449e-02  7.61528175e-02  7.71074257e-02  8.03750039e-02
  8.27135105e-02  8.68479432e-02  8.75514027e-02  8.95499568e-02
  8.98089384e-02  9.14140003e-02  9.65983508e-02  1.00623264e-01
  1.00902685e-01  1.03523504e-01  1.05836668e-01  1.10372076e-01
  1.11523083e-01  1.14157955e-01  1.16296545e-01  1.18773719e-01
  1.26887966e-01  1.28160131e-01  1.34817948e-01  1.37935756e-01
  1.44001349e-01  1.45935476e-01  1.48460076e-01  1.50124338e-01
  1.56734010e-01  1.62230941e-01  1.71627748e-01  1.83941205e-01
  1.84769826e-01  1.85289748e-01  1.91224723e-01  1.97346737e-01
  1.99407241e-01  2.00621189e-01  2.03559732e-01  2.06183500e-01
  2.08478326e-01  2.09356248e-01  2.11216376e-01  2.14697609e-01
  2.20447311e-01  2.26288752e-01  2.28473876e-01  2.30784832e-01
  2.33659193e-01  2.40187396e-01  2.42936320e-01  2.45466548e-01
  2.48990711e-01  2.52752694e-01  2.55736546e-01  2.56533834e-01
  2.61284416e-01  2.65885493e-01  2.73986750e-01  2.77413579e-01
  2.82058581e-01  2.93816823e-01  2.97163243e-01  2.99622809e-01
  3.03617880e-01  3.07025926e-01  3.12940940e-01  3.13516981e-01
  3.16928679e-01  3.18609025e-01  3.22599311e-01  3.25703900e-01
  3.31656995e-01  3.33893838e-01  3.40338801e-01  3.45045231e-01
  3.47876995e-01  3.50166301e-01  3.51083833e-01  3.58475716e-01
  3.70077108e-01  3.76107565e-01  3.82360185e-01  3.82941903e-01
  3.83154745e-01  3.93893801e-01  3.95133682e-01  4.02942837e-01
  4.03668354e-01  4.09608904e-01  4.16329146e-01  4.19143462e-01
  4.19877241e-01  4.22722709e-01  4.25687520e-01  4.29754603e-01
  4.33569772e-01  4.37421186e-01  4.41457735e-01  4.42830484e-01
  4.45660051e-01  4.51375007e-01  4.53163776e-01  4.57649253e-01
  4.59238735e-01  4.65040739e-01  4.69647157e-01  4.75068836e-01
  4.77548288e-01  4.85616186e-01  4.87750730e-01  4.92730189e-01
  4.94936717e-01  4.97887525e-01  5.02928978e-01  5.07229820e-01
  5.12451486e-01  5.15536440e-01  5.16436664e-01  5.24555723e-01
  5.31886918e-01  5.35317284e-01  5.37578501e-01  5.40447310e-01
  5.42063917e-01  5.43954834e-01  5.47536770e-01  5.51716538e-01
  5.59323942e-01  5.60519630e-01  5.62071857e-01  5.65416427e-01
  5.69442306e-01  5.72460630e-01  5.77230354e-01  5.85782598e-01
  5.88654383e-01  5.94017083e-01  5.99858904e-01  6.00245292e-01
  6.09822073e-01  6.23276181e-01  6.26684915e-01  6.31959674e-01
  6.33424521e-01  6.37603839e-01  6.45837694e-01  6.47145668e-01
  6.53822076e-01  6.58864227e-01  6.66634941e-01  6.68950149e-01
  6.80807565e-01  6.89188908e-01  6.97969029e-01  7.00245851e-01
  7.11066248e-01  7.13186782e-01  7.20351418e-01  7.24100524e-01
  7.33273940e-01  7.38890606e-01  7.40476129e-01  7.45525179e-01
  7.47367234e-01  7.53533985e-01  7.56145495e-01  7.59400605e-01
  7.60948782e-01  7.64240372e-01  7.69938899e-01  7.71517427e-01
  7.73254435e-01  7.78030782e-01  7.80706153e-01  7.85049689e-01
  7.89412628e-01  7.94034990e-01  8.00047028e-01  8.02028852e-01
  8.04768533e-01  8.06783070e-01  8.15255217e-01  8.18615350e-01
  8.23522858e-01  8.28289420e-01  8.28844226e-01  8.34103012e-01
  8.36027374e-01  8.38951979e-01  8.46220313e-01  8.53555615e-01
  8.62414140e-01  8.64409080e-01  8.67479676e-01  8.69544308e-01
  8.71145525e-01  8.73864968e-01  8.79177447e-01  8.82701158e-01
  8.83605347e-01  8.88889147e-01  8.91329716e-01  9.00731168e-01
  9.06563760e-01  9.11582002e-01  9.17748240e-01  9.21152237e-01
  9.21973156e-01  9.26033279e-01  9.26599984e-01  9.33459669e-01
  9.39065511e-01  9.43874574e-01  9.46003077e-01  9.54232466e-01
  9.60731106e-01  9.65830967e-01  9.68174693e-01  9.71825789e-01
  9.76946603e-01  9.78434902e-01  9.88260559e-01  9.91812581e-01
  9.94982391e-01  9.98383069e-01  1.00365957e+00  1.00793539e+00
  1.01026337e+00  1.01119232e+00  1.01926502e+00  1.01937692e+00
  1.02546106e+00  1.03448291e+00  1.03847888e+00  1.03908535e+00
  1.04295010e+00  1.04795387e+00  1.05313251e+00  1.05399843e+00
  1.05520411e+00  1.05774026e+00  1.06018990e+00  1.06495818e+00
  1.06842462e+00  1.07770059e+00  1.08085102e+00  1.08604693e+00
  1.09488181e+00  1.10244298e+00  1.10624423e+00  1.11653128e+00
  1.12583797e+00  1.12754163e+00  1.13530974e+00  1.13822595e+00
  1.14013508e+00  1.14542564e+00  1.15445442e+00  1.16256881e+00
  1.16655980e+00  1.17095790e+00  1.18198918e+00  1.18587246e+00
  1.18854812e+00  1.19424796e+00  1.20070621e+00  1.20741431e+00
  1.21410147e+00  1.21712940e+00  1.22510778e+00  1.22953843e+00
  1.23177034e+00  1.23632184e+00  1.24265264e+00  1.24642252e+00
  1.25514740e+00  1.25867908e+00  1.26303551e+00  1.26688557e+00
  1.26965311e+00  1.27695310e+00  1.28563697e+00  1.28769908e+00
  1.28910976e+00  1.29724516e+00  1.30004850e+00  1.30655619e+00
  1.30983933e+00  1.31510083e+00  1.32754832e+00  1.32855497e+00
  1.33571674e+00  1.34228000e+00  1.34719229e+00  1.35416735e+00
  1.37784314e+00  1.38217126e+00  1.39761477e+00  1.41057177e+00
  1.41513322e+00  1.41691667e+00  1.42760583e+00  1.43280816e+00
  1.43488596e+00  1.44753686e+00  1.46724152e+00  1.46809484e+00
  1.51503974e+00  1.51971139e+00  1.53641330e+00  1.57440483e+00
  1.60382738e+00  1.62435028e+00  1.65824034e+00  1.66889772e+00
  1.72729323e+00  1.80312900e+00  1.82769598e+00  1.87331719e+00
  1.88136421e+00  1.91790289e+00  1.97721374e+00  2.00044891e+00
  2.07345463e+00  2.10708388e+00  2.16040563e+00  2.24228037e+00
  2.27804624e+00  2.33229749e+00  2.38452953e+00  2.42880893e+00
  2.45855843e+00  2.47421335e+00  2.50736492e+00  2.54162769e+00
  2.61224505e+00  2.66357644e+00  2.68294347e+00  2.71269955e+00
  2.75363247e+00  2.79102363e+00  2.83199167e+00  2.86016781e+00
  2.86655104e+00  2.87638900e+00  2.97334201e+00  2.99679284e+00
  3.00846375e+00  3.05834468e+00  3.09206852e+00  3.12337673e+00
  3.13660715e+00  3.18561881e+00  3.20329875e+00  3.22297725e+00
  3.24101884e+00  3.28619565e+00  3.29837661e+00  3.30218583e+00
  3.31954802e+00  3.33100747e+00  3.35065553e+00  3.37377009e+00
  3.38212245e+00  3.38435630e+00  3.41428203e+00  3.44701918e+00
  3.47026233e+00  3.47456426e+00  3.51631183e+00  3.53213833e+00
  3.53351666e+00  3.55329228e+00  3.58011240e+00  3.58611646e+00
  3.61415059e+00  3.62984974e+00  3.67472970e+00  3.69856384e+00
  3.70153030e+00  3.76591806e+00  3.77294874e+00  3.80546603e+00
  3.85947659e+00  3.86309918e+00  3.89952018e+00  3.92265734e+00
  3.96073029e+00  3.96945107e+00  4.02350306e+00  4.04848046e+00
  4.06135739e+00  4.07948838e+00  4.09487079e+00  4.09973290e+00
  4.15936116e+00  4.25288078e+00  4.28790014e+00  4.29274567e+00
  4.29795853e+00  4.39220303e+00  4.39676383e+00  4.43140951e+00
  4.44245191e+00  4.50638443e+00  4.52320649e+00  4.52541227e+00
  4.65801605e+00  4.67782682e+00  4.68319715e+00  4.71562100e+00
  4.77524117e+00  4.82475995e+00  4.83721120e+00  4.95069454e+00
  5.01554986e+00  5.05683069e+00  5.08813425e+00  5.14800750e+00
  5.17271601e+00  5.32839367e+00  5.33891376e+00  5.40132346e+00
  5.44435083e+00  5.48788249e+00  5.49321874e+00  5.53473723e+00
  5.58435475e+00  5.61114382e+00  5.61396376e+00  5.69163274e+00
  5.75479653e+00  5.75859140e+00  5.85341212e+00  5.88199060e+00
  5.98780544e+00  6.00257328e+00  6.09379818e+00  6.11811548e+00
  6.12511464e+00  6.14932940e+00  6.20708788e+00  6.21436343e+00
  6.28853700e+00  6.39634569e+00  6.45387853e+00  6.46482858e+00
  6.46850567e+00  6.59745291e+00  6.65096116e+00  6.72429363e+00
  6.80491448e+00  6.85020327e+00  6.90877556e+00  6.97671256e+00
  7.00416626e+00  7.04931425e+00  7.10558364e+00  7.20318469e+00
  7.23243221e+00  7.30569141e+00  7.33693305e+00  7.35360004e+00
  7.42994032e+00  7.46255692e+00  7.52493599e+00  7.53067404e+00
  7.73541001e+00  7.76929769e+00  7.92310070e+00  7.99477690e+00
  8.09132998e+00  8.46290795e+00  1.11046145e+01  1.30781476e+01
  1.33484345e+01  1.40546996e+01  1.58849520e+01  1.73961285e+01]
E1 = -1467.2348774782258  E_coul = 597.5737649928019
cycle= 5 E= -415.077503015301  delta_E= -0.000585  |g|= 0.0105  |ddm|= 0.0555
    CPU time for cycle= 5     72.15 sec, wall time      2.27 sec
diis-norm(errvec)=0.0503586
diis-c [-0.00164516  0.01467789  0.00626713 -0.19051559 -0.10876029  1.27833086]
  HOMO = -0.128318467422765  LUMO = 0.00165100023192843
  mo_energy =
[-2.06545342e+01 -2.06539317e+01 -2.05858778e+01 -1.14562466e+01
 -1.13145961e+01 -1.13135453e+01 -2.43401536e+00 -2.42964641e+00
 -2.42938848e+00 -2.42609206e+00 -2.42517869e+00 -2.42334131e+00
 -2.42228621e+00 -2.42166704e+00 -2.41228826e+00 -2.40857205e+00
 -1.64394184e+00 -1.49195126e+00 -1.47706046e+00 -1.13573711e+00
 -9.90795107e-01 -9.03674377e-01 -8.37405228e-01 -8.11056071e-01
 -7.54867723e-01 -7.27309364e-01 -6.89887816e-01 -6.85007029e-01
 -6.18645680e-01 -5.91078384e-01 -5.47906241e-01 -5.32832801e-01
 -5.11303514e-01 -2.48871230e-01 -1.98648497e-01 -1.86580034e-01
 -1.29274655e-01 -1.28318467e-01  1.65100023e-03  1.48846370e-02
  1.70232611e-02  1.86752561e-02  3.11369095e-02  3.23876631e-02
  3.38577230e-02  3.50562631e-02  3.56959347e-02  4.02883938e-02
  4.62977967e-02  5.45858611e-02  5.67106012e-02  5.94446319e-02
  6.15363024e-02  6.47051892e-02  6.89820927e-02  6.98136794e-02
  7.35035437e-02  7.62826940e-02  7.72514162e-02  8.05390655e-02
  8.29696418e-02  8.69784658e-02  8.77290135e-02  8.96538512e-02
  8.99324566e-02  9.16312743e-02  9.69063714e-02  1.00750073e-01
  1.00970931e-01  1.03538934e-01  1.05827497e-01  1.10454540e-01
  1.11633605e-01  1.14178423e-01  1.16368292e-01  1.18978531e-01
  1.27148845e-01  1.28337114e-01  1.35034114e-01  1.38146517e-01
  1.44212650e-01  1.46078347e-01  1.48649198e-01  1.50467149e-01
  1.56997146e-01  1.62271522e-01  1.72075694e-01  1.84167438e-01
  1.84955862e-01  1.85507758e-01  1.91467593e-01  1.97451821e-01
  1.99583469e-01  2.00877387e-01  2.03769644e-01  2.06499770e-01
  2.08758187e-01  2.09590049e-01  2.11395837e-01  2.14863493e-01
  2.20672537e-01  2.26469057e-01  2.28734690e-01  2.31131277e-01
  2.33827905e-01  2.40376365e-01  2.43061106e-01  2.45686565e-01
  2.49184225e-01  2.52895218e-01  2.55962068e-01  2.56788249e-01
  2.61622555e-01  2.66163591e-01  2.74176754e-01  2.77654207e-01
  2.82397847e-01  2.94004167e-01  2.97557295e-01  2.99890006e-01
  3.03766717e-01  3.07133859e-01  3.13096761e-01  3.13677894e-01
  3.17187758e-01  3.18724299e-01  3.22651242e-01  3.25943602e-01
  3.31921519e-01  3.34096675e-01  3.40531272e-01  3.45291732e-01
  3.48090048e-01  3.50454508e-01  3.51346330e-01  3.58682655e-01
  3.70280908e-01  3.76391127e-01  3.82753712e-01  3.83234916e-01
  3.83368265e-01  3.94216663e-01  3.95374468e-01  4.03145108e-01
  4.03851535e-01  4.09999648e-01  4.16531418e-01  4.19341081e-01
  4.20166587e-01  4.23031107e-01  4.26027507e-01  4.29997924e-01
  4.33897830e-01  4.37647965e-01  4.41731640e-01  4.43030307e-01
  4.45926212e-01  4.51780104e-01  4.53450571e-01  4.58038431e-01
  4.59495072e-01  4.65365819e-01  4.70050759e-01  4.75307342e-01
  4.77885237e-01  4.85921558e-01  4.88235476e-01  4.92952861e-01
  4.95145410e-01  4.98156700e-01  5.03152055e-01  5.07413260e-01
  5.12735536e-01  5.15767640e-01  5.16685816e-01  5.24996887e-01
  5.32115493e-01  5.35658586e-01  5.37806198e-01  5.40615764e-01
  5.42323502e-01  5.44341265e-01  5.47746691e-01  5.51858517e-01
  5.59814264e-01  5.60774189e-01  5.62509232e-01  5.65620011e-01
  5.69686538e-01  5.72825836e-01  5.77401514e-01  5.86044674e-01
  5.89142225e-01  5.94343543e-01  6.00124189e-01  6.00662553e-01
  6.10124872e-01  6.23494031e-01  6.26880441e-01  6.32093683e-01
  6.33703968e-01  6.37915989e-01  6.45977581e-01  6.47443757e-01
  6.54072822e-01  6.58955818e-01  6.66768494e-01  6.69064411e-01
  6.81244700e-01  6.89344300e-01  6.98348921e-01  7.00477780e-01
  7.11259739e-01  7.13333551e-01  7.20822291e-01  7.24570809e-01
  7.33491693e-01  7.39247215e-01  7.40835594e-01  7.46187731e-01
  7.47958579e-01  7.53899837e-01  7.56435437e-01  7.59669499e-01
  7.61282629e-01  7.64620958e-01  7.70178807e-01  7.71888688e-01
  7.73652776e-01  7.78467843e-01  7.80929025e-01  7.85383436e-01
  7.89813959e-01  7.94594865e-01  8.00497765e-01  8.02498203e-01
  8.05007287e-01  8.07210189e-01  8.15827131e-01  8.18960101e-01
  8.24008523e-01  8.28745971e-01  8.29432425e-01  8.34520217e-01
  8.36470679e-01  8.39447509e-01  8.46520159e-01  8.53948374e-01
  8.62963094e-01  8.64821131e-01  8.67968804e-01  8.70056859e-01
  8.71598256e-01  8.74253437e-01  8.79546888e-01  8.83070148e-01
  8.84030619e-01  8.89242300e-01  8.91787331e-01  9.01037243e-01
  9.06943569e-01  9.11972392e-01  9.18088992e-01  9.21409918e-01
  9.22303460e-01  9.26355936e-01  9.26932661e-01  9.33828485e-01
  9.39383578e-01  9.44092535e-01  9.46370409e-01  9.54616243e-01
  9.61179947e-01  9.66254713e-01  9.68555136e-01  9.72247547e-01
  9.77302831e-01  9.78767010e-01  9.88725150e-01  9.92206848e-01
  9.95304651e-01  9.98888567e-01  1.00412133e+00  1.00837008e+00
  1.01070921e+00  1.01157672e+00  1.01936792e+00  1.01959365e+00
  1.02591092e+00  1.03478661e+00  1.03888751e+00  1.03953719e+00
  1.04327517e+00  1.04848196e+00  1.05358129e+00  1.05421776e+00
  1.05552455e+00  1.05815245e+00  1.06061052e+00  1.06517232e+00
  1.06871892e+00  1.07807141e+00  1.08129183e+00  1.08649695e+00
  1.09533478e+00  1.10267374e+00  1.10646123e+00  1.11674989e+00
  1.12622756e+00  1.12790420e+00  1.13563653e+00  1.13852640e+00
  1.14068956e+00  1.14579903e+00  1.15482586e+00  1.16296922e+00
  1.16698443e+00  1.17142406e+00  1.18249523e+00  1.18632196e+00
  1.18895593e+00  1.19480447e+00  1.20103774e+00  1.20775471e+00
  1.21427362e+00  1.21745790e+00  1.22549963e+00  1.22985560e+00
  1.23215223e+00  1.23688444e+00  1.24300315e+00  1.24681649e+00
  1.25552902e+00  1.25924648e+00  1.26338077e+00  1.26736719e+00
  1.27007054e+00  1.27726432e+00  1.28580836e+00  1.28789802e+00
  1.28919351e+00  1.29750576e+00  1.30024926e+00  1.30695925e+00
  1.31015463e+00  1.31551383e+00  1.32807660e+00  1.32874243e+00
  1.33618617e+00  1.34271538e+00  1.34750851e+00  1.35447140e+00
  1.37825621e+00  1.38243349e+00  1.39795895e+00  1.41052131e+00
  1.41509161e+00  1.41734104e+00  1.42813719e+00  1.43300055e+00
  1.43535573e+00  1.44779618e+00  1.46735100e+00  1.46849354e+00
  1.51495152e+00  1.51955578e+00  1.53641966e+00  1.57426605e+00
  1.60390243e+00  1.62395311e+00  1.65819751e+00  1.66859717e+00
  1.72709457e+00  1.80290076e+00  1.82813070e+00  1.87298155e+00
  1.88121159e+00  1.91781526e+00  1.97719811e+00  1.99984856e+00
  2.07284128e+00  2.10733053e+00  2.16006649e+00  2.24200111e+00
  2.27715025e+00  2.33165164e+00  2.38396527e+00  2.42862010e+00
  2.45847478e+00  2.47373927e+00  2.50716814e+00  2.54114324e+00
  2.61176757e+00  2.66342712e+00  2.68303485e+00  2.71238620e+00
  2.75360342e+00  2.79078066e+00  2.83193202e+00  2.85964715e+00
  2.86644687e+00  2.87614082e+00  2.97312054e+00  2.99709820e+00
  3.00839317e+00  3.05794399e+00  3.09194781e+00  3.12317210e+00
  3.13637877e+00  3.18527013e+00  3.20274222e+00  3.22345333e+00
  3.24138125e+00  3.28651029e+00  3.29810110e+00  3.30192977e+00
  3.31917843e+00  3.33099702e+00  3.35039018e+00  3.37458375e+00
  3.38237177e+00  3.38426574e+00  3.41398322e+00  3.44663570e+00
  3.47002683e+00  3.47434417e+00  3.51658226e+00  3.53167324e+00
  3.53302672e+00  3.55275310e+00  3.58013435e+00  3.58653879e+00
  3.61373088e+00  3.63020214e+00  3.67431814e+00  3.69791029e+00
  3.70143926e+00  3.76584440e+00  3.77225572e+00  3.80504147e+00
  3.85900216e+00  3.86281701e+00  3.89917068e+00  3.92242830e+00
  3.96006593e+00  3.96920784e+00  4.02329939e+00  4.04814110e+00
  4.06105225e+00  4.07911547e+00  4.09476165e+00  4.09957804e+00
  4.15891568e+00  4.25248651e+00  4.28759290e+00  4.29184344e+00
  4.29765967e+00  4.39166093e+00  4.39645814e+00  4.43107338e+00
  4.44213361e+00  4.50573697e+00  4.52296930e+00  4.52507059e+00
  4.65759302e+00  4.67775173e+00  4.68284515e+00  4.71625235e+00
  4.77522655e+00  4.82404571e+00  4.83624438e+00  4.95006308e+00
  5.01485691e+00  5.05592426e+00  5.08749101e+00  5.14757020e+00
  5.17204894e+00  5.32755428e+00  5.33815518e+00  5.40092464e+00
  5.44380256e+00  5.48750805e+00  5.49237671e+00  5.53433527e+00
  5.58495542e+00  5.61165773e+00  5.61370787e+00  5.69114022e+00
  5.75399203e+00  5.75812906e+00  5.85256109e+00  5.88119260e+00
  5.98652156e+00  6.00215335e+00  6.09268820e+00  6.11793548e+00
  6.12459234e+00  6.14840538e+00  6.20565483e+00  6.21350280e+00
  6.28771658e+00  6.39480666e+00  6.45281571e+00  6.46323699e+00
  6.46708433e+00  6.59613179e+00  6.64947709e+00  6.72338500e+00
  6.80422958e+00  6.84894373e+00  6.90742809e+00  6.97687749e+00
  7.00471536e+00  7.04878557e+00  7.10517211e+00  7.20152373e+00
  7.23063280e+00  7.30376125e+00  7.33448873e+00  7.35151126e+00
  7.42908888e+00  7.46192116e+00  7.52431440e+00  7.52832847e+00
  7.73447459e+00  7.76692328e+00  7.92256886e+00  7.99329572e+00
  8.08912034e+00  8.46241997e+00  1.11032390e+01  1.30775646e+01
  1.33453174e+01  1.40540526e+01  1.58848067e+01  1.73965910e+01]
E1 = -1467.2670066911119  E_coul = 597.6056339753464
cycle= 6 E= -415.077763245642  delta_E= -0.00026  |g|= 0.00514  |ddm|= 0.0547
    CPU time for cycle= 6     72.42 sec, wall time      2.28 sec
diis-norm(errvec)=0.0272899
diis-c [-5.32185459e-04  7.22087946e-03  9.21741792e-03 -3.65740291e-02
 -1.54665885e-01 -1.03268492e-01  1.27807011e+00]
  HOMO = -0.128502304309569  LUMO = 0.00188331019657393
  mo_energy =
[-2.06509676e+01 -2.06502783e+01 -2.05846151e+01 -1.14551115e+01
 -1.13136390e+01 -1.13125895e+01 -2.43361294e+00 -2.42893101e+00
 -2.42888406e+00 -2.42647180e+00 -2.42536200e+00 -2.42294886e+00
 -2.42145133e+00 -2.42085217e+00 -2.41229177e+00 -2.40871040e+00
 -1.64260256e+00 -1.49121528e+00 -1.47551378e+00 -1.13506278e+00
 -9.89859596e-01 -9.02492131e-01 -8.36576412e-01 -8.10423394e-01
 -7.54177382e-01 -7.26664958e-01 -6.89364738e-01 -6.84160786e-01
 -6.17195523e-01 -5.90317167e-01 -5.47470538e-01 -5.32000403e-01
 -5.10519083e-01 -2.48363834e-01 -1.98429192e-01 -1.86328586e-01
 -1.29545490e-01 -1.28502304e-01  1.88331020e-03  1.51609516e-02
  1.71695639e-02  1.88250990e-02  3.12384311e-02  3.24884740e-02
  3.39145622e-02  3.51741134e-02  3.58828407e-02  4.03237814e-02
  4.63433671e-02  5.46578029e-02  5.67852599e-02  5.95203729e-02
  6.15993399e-02  6.48233600e-02  6.91909309e-02  6.98152571e-02
  7.35986670e-02  7.63496470e-02  7.73039974e-02  8.05715993e-02
  8.31093721e-02  8.70103379e-02  8.78208906e-02  8.97158741e-02
  8.99864690e-02  9.18289508e-02  9.69884665e-02  1.00874264e-01
  1.01025985e-01  1.03611122e-01  1.05843353e-01  1.10492929e-01
  1.11702143e-01  1.14206510e-01  1.16415202e-01  1.19049946e-01
  1.27312305e-01  1.28496261e-01  1.35136177e-01  1.38293928e-01
  1.44273720e-01  1.46178154e-01  1.48748838e-01  1.50555127e-01
  1.57144450e-01  1.62369200e-01  1.72157984e-01  1.84339058e-01
  1.85117735e-01  1.85650305e-01  1.91588983e-01  1.97542449e-01
  1.99701587e-01  2.01018193e-01  2.04021787e-01  2.06594645e-01
  2.08986331e-01  2.09814531e-01  2.11639480e-01  2.15090588e-01
  2.20774676e-01  2.26588747e-01  2.28843173e-01  2.31281407e-01
  2.34031927e-01  2.40512649e-01  2.43170986e-01  2.45839605e-01
  2.49341620e-01  2.53079470e-01  2.56022024e-01  2.56894337e-01
  2.61701286e-01  2.66345998e-01  2.74325100e-01  2.77755423e-01
  2.82543216e-01  2.94129997e-01  2.97657061e-01  3.00010272e-01
  3.03917971e-01  3.07287257e-01  3.13252740e-01  3.13799467e-01
  3.17302407e-01  3.18890919e-01  3.22876144e-01  3.26026766e-01
  3.32079828e-01  3.34236811e-01  3.40662121e-01  3.45440979e-01
  3.48260834e-01  3.50654145e-01  3.51556133e-01  3.58761182e-01
  3.70433968e-01  3.76518157e-01  3.82841025e-01  3.83342737e-01
  3.83500436e-01  3.94339981e-01  3.95601079e-01  4.03303593e-01
  4.04053089e-01  4.10199426e-01  4.16728343e-01  4.19490443e-01
  4.20294188e-01  4.23220124e-01  4.26209011e-01  4.30066069e-01
  4.34088842e-01  4.37870065e-01  4.41878006e-01  4.43282917e-01
  4.46080250e-01  4.51964073e-01  4.53648842e-01  4.58187986e-01
  4.59815724e-01  4.65560755e-01  4.70145836e-01  4.75508682e-01
  4.78096705e-01  4.86017333e-01  4.88466327e-01  4.93065213e-01
  4.95341342e-01  4.98417319e-01  5.03266454e-01  5.07683901e-01
  5.12988699e-01  5.15992544e-01  5.16938221e-01  5.25094079e-01
  5.32390370e-01  5.35860436e-01  5.38094666e-01  5.40880604e-01
  5.42494216e-01  5.44669467e-01  5.47966430e-01  5.52261930e-01
  5.60086523e-01  5.60993410e-01  5.62707344e-01  5.65912565e-01
  5.69906306e-01  5.73043755e-01  5.77716368e-01  5.86196122e-01
  5.89244502e-01  5.94599768e-01  6.00340233e-01  6.00801438e-01
  6.10380046e-01  6.23754247e-01  6.27126980e-01  6.32420316e-01
  6.33933202e-01  6.38188198e-01  6.46201195e-01  6.47655592e-01
  6.54269301e-01  6.59194424e-01  6.67046790e-01  6.69400279e-01
  6.81471008e-01  6.89707875e-01  6.98638832e-01  7.00877319e-01
  7.11610455e-01  7.13672933e-01  7.21014660e-01  7.24897925e-01
  7.33743011e-01  7.39438175e-01  7.41057976e-01  7.46298678e-01
  7.48100236e-01  7.54133246e-01  7.56746126e-01  7.60028878e-01
  7.61547640e-01  7.64848295e-01  7.70479934e-01  7.72108196e-01
  7.73909253e-01  7.78766671e-01  7.81275328e-01  7.85698144e-01
  7.90169960e-01  7.94943879e-01  8.00743608e-01  8.02682974e-01
  8.05454243e-01  8.07502979e-01  8.16009399e-01  8.19107131e-01
  8.24178943e-01  8.28890745e-01  8.29592966e-01  8.34795240e-01
  8.36762190e-01  8.39686626e-01  8.46777303e-01  8.54206251e-01
  8.63177428e-01  8.65050089e-01  8.68253365e-01  8.70369829e-01
  8.71894659e-01  8.74576013e-01  8.79875937e-01  8.83287221e-01
  8.84289665e-01  8.89429060e-01  8.91976704e-01  9.01253808e-01
  9.07121497e-01  9.12252818e-01  9.18301881e-01  9.21782151e-01
  9.22518353e-01  9.26658225e-01  9.27112300e-01  9.34050459e-01
  9.39670249e-01  9.44419220e-01  9.46629090e-01  9.54813439e-01
  9.61425127e-01  9.66464861e-01  9.68750350e-01  9.72516329e-01
  9.77590942e-01  9.79060731e-01  9.88997498e-01  9.92480671e-01
  9.95458635e-01  9.99193537e-01  1.00442851e+00  1.00856772e+00
  1.01095706e+00  1.01185659e+00  1.01961057e+00  1.01987781e+00
  1.02618126e+00  1.03498791e+00  1.03912198e+00  1.03980053e+00
  1.04341908e+00  1.04876728e+00  1.05395110e+00  1.05446447e+00
  1.05572639e+00  1.05836409e+00  1.06083095e+00  1.06541230e+00
  1.06897660e+00  1.07831889e+00  1.08152321e+00  1.08667040e+00
  1.09551896e+00  1.10288238e+00  1.10664015e+00  1.11696347e+00
  1.12647405e+00  1.12816848e+00  1.13582486e+00  1.13881616e+00
  1.14098390e+00  1.14612099e+00  1.15510249e+00  1.16328497e+00
  1.16720477e+00  1.17173107e+00  1.18262724e+00  1.18666076e+00
[...]
  3.96050784e+00  3.96940258e+00  4.02347131e+00  4.04840662e+00
  4.06129700e+00  4.07935689e+00  4.09474031e+00  4.09966821e+00
  4.15926063e+00  4.25273108e+00  4.28774855e+00  4.29229232e+00
  4.29792978e+00  4.39198389e+00  4.39673987e+00  4.43139693e+00
  4.44235299e+00  4.50607945e+00  4.52309279e+00  4.52529545e+00
  4.65792168e+00  4.67792267e+00  4.68326025e+00  4.71638948e+00
  4.77554599e+00  4.82454142e+00  4.83675789e+00  4.95051627e+00
  5.01523793e+00  5.05644331e+00  5.08788831e+00  5.14788725e+00
  5.17257572e+00  5.32809686e+00  5.33863684e+00  5.40117580e+00
  5.44413026e+00  5.48786222e+00  5.49287886e+00  5.53461193e+00
  5.58490202e+00  5.61164109e+00  5.61398416e+00  5.69147299e+00
  5.75449887e+00  5.75845731e+00  5.85305816e+00  5.88168324e+00
  5.98721914e+00  6.00250637e+00  6.09331419e+00  6.11831496e+00
  6.12497131e+00  6.14897608e+00  6.20647775e+00  6.21404612e+00
  6.28822660e+00  6.39563464e+00  6.45343439e+00  6.46408787e+00
  6.46783742e+00  6.59687263e+00  6.65030964e+00  6.72401382e+00
  6.80479942e+00  6.84969142e+00  6.90822040e+00  6.97712917e+00
  7.00486698e+00  7.04935253e+00  7.10576710e+00  7.20245646e+00
  7.23159616e+00  7.30475676e+00  7.33563842e+00  7.35254306e+00
  7.42969012e+00  7.46241306e+00  7.52490005e+00  7.52942937e+00
  7.73514590e+00  7.76798658e+00  7.92313955e+00  7.99413372e+00
  8.09014783e+00  8.46302500e+00  1.11041449e+01  1.30781701e+01
  1.33467531e+01  1.40546953e+01  1.58852499e+01  1.73971423e+01]
E1 = -1467.2621499267652  E_coul = 597.6006088331661
cycle= 16 E= -415.077931623476  delta_E= -1.14e-09  |g|= 1.06e-05  |ddm|= 0.000111
    CPU time for cycle= 16     73.01 sec, wall time      2.30 sec
diis-norm(errvec)=6.38753e-05
diis-c [-3.10767702e-09  1.86996633e-03 -9.16020293e-03  8.32517586e-03
  3.25362383e-02  2.14622763e-03 -3.30294655e-01 -1.02851457e-01
  1.39742871e+00]
  HOMO = -0.128564632214394  LUMO = 0.00191006283884766
  mo_energy =
[-2.06520788e+01 -2.06513923e+01 -2.05854709e+01 -1.14554433e+01
 -1.13140489e+01 -1.13129970e+01 -2.43298074e+00 -2.42911564e+00
 -2.42860140e+00 -2.42685533e+00 -2.42520554e+00 -2.42083722e+00
 -2.42066260e+00 -2.42009164e+00 -2.41238703e+00 -2.40911716e+00
 -1.64313899e+00 -1.49165510e+00 -1.47608800e+00 -1.13537067e+00
 -9.90200162e-01 -9.02945759e-01 -8.36935067e-01 -8.10759976e-01
 -7.54445345e-01 -7.27002142e-01 -6.89625435e-01 -6.84507485e-01
 -6.17698065e-01 -5.90583199e-01 -5.47831555e-01 -5.32376526e-01
 -5.10826533e-01 -2.48081880e-01 -1.98499759e-01 -1.86191744e-01
 -1.29866244e-01 -1.28564632e-01  1.91006284e-03  1.53487737e-02
  1.72676929e-02  1.89465581e-02  3.13572117e-02  3.26711891e-02
  3.39696597e-02  3.53009581e-02  3.60679793e-02  4.04178878e-02
  4.63968935e-02  5.46806989e-02  5.68488874e-02  5.94984573e-02
  6.15630789e-02  6.48639175e-02  6.93140037e-02  6.98429531e-02
  7.35951057e-02  7.63864787e-02  7.73047337e-02  8.05694408e-02
  8.32010861e-02  8.69935396e-02  8.79456699e-02  8.96957937e-02
  8.99884748e-02  9.19881499e-02  9.71594447e-02  1.00905659e-01
  1.01141617e-01  1.03650452e-01  1.05830960e-01  1.10524623e-01
  1.11721157e-01  1.14205799e-01  1.16465373e-01  1.19176852e-01
  1.27367932e-01  1.28539745e-01  1.35142048e-01  1.38361273e-01
  1.44325706e-01  1.46168315e-01  1.48721686e-01  1.50532273e-01
  1.57247255e-01  1.62308598e-01  1.72415728e-01  1.84353487e-01
  1.85115088e-01  1.85715256e-01  1.91581446e-01  1.97477926e-01
  1.99669728e-01  2.01149013e-01  2.03973334e-01  2.06694462e-01
  2.09046573e-01  2.09942839e-01  2.11654212e-01  2.15147378e-01
  2.20776303e-01  2.26697585e-01  2.28952464e-01  2.31343651e-01
  2.34134692e-01  2.40553473e-01  2.43077328e-01  2.45881842e-01
  2.49356372e-01  2.53086446e-01  2.56091770e-01  2.57003266e-01
  2.61716310e-01  2.66465937e-01  2.74264618e-01  2.77765807e-01
  2.82656504e-01  2.94191613e-01  2.97822697e-01  3.00043766e-01
  3.03930924e-01  3.07226951e-01  3.13307613e-01  3.13873859e-01
  3.17311839e-01  3.18835647e-01  3.22911577e-01  3.26093106e-01
  3.32196403e-01  3.34307133e-01  3.40701839e-01  3.45539807e-01
  3.48279865e-01  3.50688387e-01  3.51688733e-01  3.58818950e-01
  3.70482881e-01  3.76616325e-01  3.82972304e-01  3.83395803e-01
  3.83614546e-01  3.94385501e-01  3.95662100e-01  4.03364104e-01
  4.04097146e-01  4.10364050e-01  4.16706063e-01  4.19393640e-01
  4.20375857e-01  4.23248027e-01  4.26173219e-01  4.29980306e-01
  4.34142260e-01  4.37909162e-01  4.41896961e-01  4.43289609e-01
  4.46106574e-01  4.52126835e-01  4.53731698e-01  4.58333452e-01
  4.59889597e-01  4.65547625e-01  4.70417557e-01  4.75617089e-01
  4.78317889e-01  4.86140166e-01  4.88785356e-01  4.93111764e-01
  4.95377644e-01  4.98615398e-01  5.03223599e-01  5.07765072e-01
  5.13087078e-01  5.15995642e-01  5.17100822e-01  5.25401170e-01
  5.32448473e-01  5.36031500e-01  5.38148914e-01  5.40884330e-01
  5.42643635e-01  5.44877365e-01  5.48008639e-01  5.52331580e-01
  5.60375988e-01  5.60990075e-01  5.62950180e-01  5.65915359e-01
  5.69990180e-01  5.73194950e-01  5.77791598e-01  5.86188424e-01
  5.89534525e-01  5.94687555e-01  6.00330029e-01  6.01011495e-01
  6.10489788e-01  6.23776972e-01  6.27073163e-01  6.32391776e-01
  6.33904002e-01  6.38281561e-01  6.46117794e-01  6.47730377e-01
  6.54280704e-01  6.59162672e-01  6.67092074e-01  6.69395426e-01
  6.81622937e-01  6.89644014e-01  6.98824441e-01  7.00937374e-01
  7.11588136e-01  7.13655954e-01  7.21120784e-01  7.25023136e-01
  7.33748430e-01  7.39476627e-01  7.41132989e-01  7.46460060e-01
  7.48300379e-01  7.54186600e-01  7.56788148e-01  7.60039881e-01
  7.61556139e-01  7.64822831e-01  7.70461063e-01  7.72140654e-01
  7.73951178e-01  7.78902909e-01  7.81281895e-01  7.85808729e-01
  7.90342665e-01  7.95229818e-01  8.00904329e-01  8.02756006e-01
  8.05660578e-01  8.07737274e-01  8.16185393e-01  8.19138237e-01
  8.24362367e-01  8.28963714e-01  8.30066856e-01  8.35030554e-01
  8.36899888e-01  8.40045523e-01  8.46767156e-01  8.54269059e-01
  8.63436219e-01  8.65173287e-01  8.68512234e-01  8.70608899e-01
  8.72146119e-01  8.74745997e-01  8.80170750e-01  8.83443242e-01
  8.84471189e-01  8.89467334e-01  8.92153597e-01  9.01376568e-01
  9.07243648e-01  9.12298686e-01  9.18331678e-01  9.21923018e-01
  9.22605753e-01  9.26803172e-01  9.27221296e-01  9.34187582e-01
  9.39757681e-01  9.44515054e-01  9.46893196e-01  9.54867219e-01
  9.61585759e-01  9.66612942e-01  9.68924973e-01  9.72761331e-01
  9.77695239e-01  9.79156087e-01  9.89168510e-01  9.92622204e-01
  9.95458430e-01  9.99532228e-01  1.00471087e+00  1.00877114e+00
  1.01103788e+00  1.01196291e+00  1.01967991e+00  1.01984667e+00
  1.02636056e+00  1.03506612e+00  1.03932230e+00  1.03996043e+00
  1.04346954e+00  1.04900588e+00  1.05414049e+00  1.05450883e+00
  1.05576090e+00  1.05855299e+00  1.06103969e+00  1.06541381e+00
  1.06900188e+00  1.07851720e+00  1.08176039e+00  1.08678392e+00
  1.09571221e+00  1.10291921e+00  1.10661091e+00  1.11693484e+00
  1.12659052e+00  1.12822368e+00  1.13580778e+00  1.13877425e+00
  1.14121344e+00  1.14625935e+00  1.15519176e+00  1.16346744e+00
  1.16729932e+00  1.17192021e+00  1.18284517e+00  1.18685296e+00
  1.18946484e+00  1.19552841e+00  1.20156883e+00  1.20810342e+00
  1.21460898e+00  1.21770480e+00  1.22589555e+00  1.23029521e+00
  1.23259546e+00  1.23727320e+00  1.24342014e+00  1.24727267e+00
  1.25601768e+00  1.25987125e+00  1.26370782e+00  1.26775192e+00
  1.27056072e+00  1.27752485e+00  1.28610664e+00  1.28825013e+00
  1.28944714e+00  1.29781889e+00  1.30060969e+00  1.30742692e+00
  1.31059740e+00  1.31592471e+00  1.32841449e+00  1.32901068e+00
  1.33654654e+00  1.34313352e+00  1.34784725e+00  1.35491964e+00
  1.37867822e+00  1.38260460e+00  1.39824105e+00  1.41077269e+00
  1.41544094e+00  1.41760493e+00  1.42862299e+00  1.43318654e+00
  1.43599793e+00  1.44818251e+00  1.46747988e+00  1.46857271e+00
  1.51511654e+00  1.51977566e+00  1.53657867e+00  1.57443165e+00
  1.60401075e+00  1.62422881e+00  1.65844995e+00  1.66885998e+00
  1.72736089e+00  1.80306121e+00  1.82798873e+00  1.87326397e+00
  1.88147989e+00  1.91804418e+00  1.97740893e+00  2.00029597e+00
  2.07330232e+00  2.10746329e+00  2.16037750e+00  2.24233774e+00
  2.27768326e+00  2.33210873e+00  2.38439980e+00  2.42892828e+00
  2.45885295e+00  2.47413324e+00  2.50744846e+00  2.54158268e+00
  2.61212860e+00  2.66372920e+00  2.68326969e+00  2.71272534e+00
  2.75384919e+00  2.79107389e+00  2.83226572e+00  2.86007202e+00
  2.86671059e+00  2.87646768e+00  2.97347886e+00  2.99753524e+00
  3.00883316e+00  3.05830028e+00  3.09234741e+00  3.12347862e+00
  3.13679478e+00  3.18557944e+00  3.20318734e+00  3.22425664e+00
  3.24215489e+00  3.28708776e+00  3.29855411e+00  3.30231094e+00
  3.31949748e+00  3.33128536e+00  3.35076521e+00  3.37539284e+00
  3.38253044e+00  3.38467638e+00  3.41434133e+00  3.44702417e+00
  3.47031840e+00  3.47466357e+00  3.51710207e+00  3.53208407e+00
  3.53344149e+00  3.55331527e+00  3.58091449e+00  3.58748333e+00
  3.61421631e+00  3.63052353e+00  3.67474465e+00  3.69842175e+00
  3.70170345e+00  3.76616306e+00  3.77276064e+00  3.80547815e+00
  3.85937301e+00  3.86299399e+00  3.89940876e+00  3.92276092e+00
  3.96050702e+00  3.96940235e+00  4.02347109e+00  4.04840624e+00
  4.06129660e+00  4.07935660e+00  4.09474055e+00  4.09966833e+00
  4.15926009e+00  4.25273056e+00  4.28774833e+00  4.29229123e+00
  4.29792928e+00  4.39198325e+00  4.39673944e+00  4.43139638e+00
  4.44235264e+00  4.50607872e+00  4.52309251e+00  4.52529504e+00
  4.65792115e+00  4.67792254e+00  4.68325971e+00  4.71638986e+00
  4.77554568e+00  4.82454041e+00  4.83675667e+00  4.95051538e+00
  5.01523713e+00  5.05644210e+00  5.08788751e+00  5.14788654e+00
  5.17257481e+00  5.32809569e+00  5.33863567e+00  5.40117536e+00
  5.44412963e+00  5.48786158e+00  5.49287775e+00  5.53461139e+00
  5.58490270e+00  5.61164168e+00  5.61398381e+00  5.69147244e+00
  5.75449772e+00  5.75845663e+00  5.85305706e+00  5.88168228e+00
  5.98721748e+00  6.00250579e+00  6.09331284e+00  6.11831453e+00
  6.12497053e+00  6.14897470e+00  6.20647575e+00  6.21404498e+00
  6.28822544e+00  6.39563266e+00  6.45343297e+00  6.46408583e+00
  6.46783563e+00  6.59687099e+00  6.65030788e+00  6.72401259e+00
  6.80479842e+00  6.84968972e+00  6.90821875e+00  6.97712903e+00
  7.00486725e+00  7.04935173e+00  7.10576635e+00  7.20245420e+00
  7.23159379e+00  7.30475428e+00  7.33563517e+00  7.35254027e+00
  7.42968878e+00  7.46241205e+00  7.52489892e+00  7.52942638e+00
  7.73514448e+00  7.76798365e+00  7.92313863e+00  7.99413171e+00
  8.09014507e+00  8.46302418e+00  1.11041430e+01  1.30781691e+01
  1.33467494e+01  1.40546943e+01  1.58852493e+01  1.73971424e+01]
E1 = -1467.2621683039238  E_coul = 597.6006272096845
cycle= 17 E= -415.077931624116  delta_E= -6.4e-10  |g|= 6.78e-06  |ddm|= 8.3e-05
    CPU time for cycle= 17     72.98 sec, wall time      2.30 sec
  HOMO = -0.128564761874248  LUMO = 0.00191009661862325
  mo_energy =
[-2.06520757e+01 -2.06513872e+01 -2.05854700e+01 -1.14554438e+01
 -1.13140481e+01 -1.13129962e+01 -2.43298023e+00 -2.42911625e+00
 -2.42860050e+00 -2.42685645e+00 -2.42520509e+00 -2.42083779e+00
 -2.42066238e+00 -2.42009168e+00 -2.41238693e+00 -2.40911704e+00
 -1.64313785e+00 -1.49165485e+00 -1.47608654e+00 -1.13537010e+00
 -9.90199411e-01 -9.02944637e-01 -8.36934342e-01 -8.10759413e-01
 -7.54444874e-01 -7.27001587e-01 -6.89625184e-01 -6.84506646e-01
 -6.17696643e-01 -5.90582486e-01 -5.47831206e-01 -5.32375967e-01
 -5.10825766e-01 -2.48081764e-01 -1.98499722e-01 -1.86191658e-01
 -1.29866332e-01 -1.28564762e-01  1.91009662e-03  1.53488526e-02
  1.72677877e-02  1.89464105e-02  3.13572157e-02  3.26711310e-02
  3.39696088e-02  3.53009640e-02  3.60680040e-02  4.04178341e-02
  4.63969165e-02  5.46806969e-02  5.68489097e-02  5.94984940e-02
  6.15630329e-02  6.48639057e-02  6.93140461e-02  6.98429103e-02
  7.35951166e-02  7.63864841e-02  7.73047018e-02  8.05694281e-02
  8.32011392e-02  8.69935496e-02  8.79456712e-02  8.96957903e-02
  8.99884987e-02  9.19881398e-02  9.71594192e-02  1.00905697e-01
  1.01141605e-01  1.03650477e-01  1.05830944e-01  1.10524600e-01
  1.11721149e-01  1.14205779e-01  1.16465370e-01  1.19176851e-01
  1.27367965e-01  1.28539782e-01  1.35142054e-01  1.38361299e-01
  1.44325660e-01  1.46168318e-01  1.48721703e-01  1.50532188e-01
  1.57247206e-01  1.62308600e-01  1.72415619e-01  1.84353472e-01
  1.85115083e-01  1.85715235e-01  1.91581467e-01  1.97477983e-01
  1.99669736e-01  2.01149024e-01  2.03973443e-01  2.06694411e-01
  2.09046608e-01  2.09942912e-01  2.11654251e-01  2.15147436e-01
  2.20776321e-01  2.26697570e-01  2.28952431e-01  2.31343687e-01
  2.34134720e-01  2.40553480e-01  2.43077381e-01  2.45881829e-01
  2.49356382e-01  2.53086497e-01  2.56091797e-01  2.57003201e-01
  2.61716249e-01  2.66465894e-01  2.74264688e-01  2.77765782e-01
  2.82656458e-01  2.94191610e-01  2.97822652e-01  3.00043708e-01
  3.03930969e-01  3.07226984e-01  3.13307662e-01  3.13873804e-01
  3.17311833e-01  3.18835692e-01  3.22911607e-01  3.26093030e-01
  3.32196400e-01  3.34307130e-01  3.40701837e-01  3.45539794e-01
  3.48279922e-01  3.50688448e-01  3.51688706e-01  3.58818902e-01
  3.70482893e-01  3.76616276e-01  3.82972255e-01  3.83395758e-01
  3.83614591e-01  3.94385514e-01  3.95662189e-01  4.03364085e-01
  4.04097222e-01  4.10364043e-01  4.16706050e-01  4.19393645e-01
  4.20375841e-01  4.23248060e-01  4.26173217e-01  4.29980270e-01
  4.34142300e-01  4.37909274e-01  4.41896973e-01  4.43289719e-01
  4.46106580e-01  4.52126800e-01  4.53731686e-01  4.58333406e-01
  4.59889688e-01  4.65547716e-01  4.70417418e-01  4.75617173e-01
  4.78317820e-01  4.86140149e-01  4.88785314e-01  4.93111732e-01
  4.95377674e-01  4.98615412e-01  5.03223622e-01  5.07765107e-01
  5.13087192e-01  5.15995630e-01  5.17100818e-01  5.25401098e-01
  5.32448548e-01  5.36031551e-01  5.38149098e-01  5.40884427e-01
  5.42643634e-01  5.44877451e-01  5.48008685e-01  5.52331708e-01
  5.60375957e-01  5.60990156e-01  5.62950195e-01  5.65915404e-01
  5.69990186e-01  5.73194936e-01  5.77791710e-01  5.86188489e-01
  5.89534424e-01  5.94687616e-01  6.00330126e-01  6.01011433e-01
  6.10489843e-01  6.23777099e-01  6.27073259e-01  6.32392037e-01
  6.33903928e-01  6.38281590e-01  6.46117900e-01  6.47730371e-01
  6.54280704e-01  6.59162749e-01  6.67092162e-01  6.69395558e-01
  6.81622916e-01  6.89644279e-01  6.98824483e-01  7.00937511e-01
  7.11588293e-01  7.13656094e-01  7.21120754e-01  7.25023181e-01
  7.33748525e-01  7.39476622e-01  7.41132978e-01  7.46459918e-01
  7.48300290e-01  7.54186599e-01  7.56788331e-01  7.60039992e-01
  7.61556278e-01  7.64822900e-01  7.70461146e-01  7.72140705e-01
  7.73951201e-01  7.78903006e-01  7.81282090e-01  7.85808776e-01
  7.90342805e-01  7.95229822e-01  8.00904278e-01  8.02755932e-01
  8.05660611e-01  8.07737368e-01  8.16185382e-01  8.19138168e-01
  8.24362294e-01  8.28963661e-01  8.30066756e-01  8.35030627e-01
  8.36899913e-01  8.40045509e-01  8.46767122e-01  8.54269167e-01
  8.63436217e-01  8.65173240e-01  8.68512260e-01  8.70608916e-01
  8.72146201e-01  8.74746035e-01  8.80170824e-01  8.83443359e-01
  8.84471228e-01  8.89467243e-01  8.92153491e-01  9.01376551e-01
  9.07243618e-01  9.12298765e-01  9.18331640e-01  9.21923122e-01
  9.22605789e-01  9.26803254e-01  9.27221283e-01  9.34187600e-01
  9.39757781e-01  9.44515197e-01  9.46893205e-01  9.54867256e-01
  9.61585766e-01  9.66612974e-01  9.68924936e-01  9.72761281e-01
  9.77695303e-01  9.79156157e-01  9.89168540e-01  9.92622274e-01
  9.95458442e-01  9.99532228e-01  1.00471091e+00  1.00877109e+00
  1.01103798e+00  1.01196289e+00  1.01967991e+00  1.01984675e+00
  1.02636052e+00  1.03506612e+00  1.03932233e+00  1.03996046e+00
  1.04346950e+00  1.04900590e+00  1.05414059e+00  1.05450888e+00
  1.05576098e+00  1.05855305e+00  1.06103963e+00  1.06541389e+00
  1.06900195e+00  1.07851718e+00  1.08176037e+00  1.08678394e+00
  1.09571218e+00  1.10291925e+00  1.10661096e+00  1.11693494e+00
  1.12659056e+00  1.12822369e+00  1.13580771e+00  1.13877442e+00
  1.14121345e+00  1.14625951e+00  1.15519185e+00  1.16346749e+00
  1.16729939e+00  1.17192024e+00  1.18284511e+00  1.18685310e+00
  1.18946494e+00  1.19552844e+00  1.20156888e+00  1.20810349e+00
  1.21460910e+00  1.21770479e+00  1.22589560e+00  1.23029535e+00
  1.23259552e+00  1.23727313e+00  1.24342019e+00  1.24727273e+00
  1.25601770e+00  1.25987133e+00  1.26370794e+00  1.26775203e+00
  1.27056081e+00  1.27752492e+00  1.28610679e+00  1.28825019e+00
  1.28944732e+00  1.29781900e+00  1.30060975e+00  1.30742706e+00
  1.31059757e+00  1.31592472e+00  1.32841455e+00  1.32901080e+00
  1.33654658e+00  1.34313360e+00  1.34784732e+00  1.35491976e+00
  1.37867829e+00  1.38260471e+00  1.39824120e+00  1.41077296e+00
  1.41544119e+00  1.41760497e+00  1.42862307e+00  1.43318663e+00
  1.43599808e+00  1.44818268e+00  1.46747998e+00  1.46857275e+00
  1.51511670e+00  1.51977594e+00  1.53657881e+00  1.57443183e+00
  1.60401091e+00  1.62422917e+00  1.65845023e+00  1.66886026e+00
  1.72736123e+00  1.80306129e+00  1.82798879e+00  1.87326431e+00
  1.88148011e+00  1.91804451e+00  1.97740921e+00  2.00029656e+00
  2.07330291e+00  2.10746350e+00  2.16037801e+00  2.24233817e+00
  2.27768407e+00  2.33210922e+00  2.38440034e+00  2.42892855e+00
  2.45885327e+00  2.47413379e+00  2.50744886e+00  2.54158320e+00
  2.61212907e+00  2.66372945e+00  2.68326990e+00  2.71272583e+00
  2.75384950e+00  2.79107414e+00  2.83226601e+00  2.86007264e+00
  2.86671094e+00  2.87646808e+00  2.97347921e+00  2.99753536e+00
  3.00883351e+00  3.05830066e+00  3.09234771e+00  3.12347900e+00
  3.13679510e+00  3.18557978e+00  3.20318774e+00  3.22425675e+00
  3.24215502e+00  3.28708785e+00  3.29855450e+00  3.30231139e+00
  3.31949770e+00  3.33128551e+00  3.35076557e+00  3.37539270e+00
  3.38253047e+00  3.38467669e+00  3.41434173e+00  3.44702458e+00
  3.47031860e+00  3.47466390e+00  3.51710223e+00  3.53208441e+00
  3.53344188e+00  3.55331597e+00  3.58091474e+00  3.58748337e+00
  3.61421667e+00  3.63052366e+00  3.67474502e+00  3.69842219e+00
  3.70170380e+00  3.76616329e+00  3.77276126e+00  3.80547855e+00
  3.85937339e+00  3.86299405e+00  3.89940894e+00  3.92276121e+00
  3.96050750e+00  3.96940247e+00  4.02347122e+00  4.04840642e+00
  4.06129681e+00  4.07935685e+00  4.09474073e+00  4.09966862e+00
  4.15926044e+00  4.25273081e+00  4.28774836e+00  4.29229184e+00
  4.29792960e+00  4.39198357e+00  4.39673970e+00  4.43139674e+00
  4.44235282e+00  4.50607908e+00  4.52309259e+00  4.52529524e+00
  4.65792148e+00  4.67792269e+00  4.68326012e+00  4.71639017e+00
  4.77554626e+00  4.82454119e+00  4.83675738e+00  4.95051599e+00
  5.01523759e+00  5.05644285e+00  5.08788803e+00  5.14788700e+00
  5.17257555e+00  5.32809645e+00  5.33863641e+00  5.40117563e+00
  5.44413000e+00  5.48786218e+00  5.49287849e+00  5.53461173e+00
  5.58490286e+00  5.61164190e+00  5.61398417e+00  5.69147284e+00
  5.75449849e+00  5.75845710e+00  5.85305776e+00  5.88168298e+00
  5.98721850e+00  6.00250630e+00  6.09331370e+00  6.11831513e+00
  6.12497107e+00  6.14897559e+00  6.20647710e+00  6.21404578e+00
  6.28822619e+00  6.39563389e+00  6.45343388e+00  6.46408712e+00
  6.46783674e+00  6.59687206e+00  6.65030897e+00  6.72401356e+00
  6.80479938e+00  6.84969099e+00  6.90821992e+00  6.97712967e+00
  7.00486779e+00  7.04935253e+00  7.10576714e+00  7.20245573e+00
  7.23159531e+00  7.30475587e+00  7.33563712e+00  7.35254199e+00
  7.42968990e+00  7.46241309e+00  7.52489994e+00  7.52942816e+00
  7.73514565e+00  7.76798537e+00  7.92313957e+00  7.99413313e+00
  8.09014674e+00  8.46302494e+00  1.11041443e+01  1.30781700e+01
  1.33467517e+01  1.40546952e+01  1.58852500e+01  1.73971428e+01]
E1 = -1467.2621428239815  E_coul = 597.6006017295879
Extra cycle  E= -415.07793162427  delta_E= -1.54e-10  |g|= 5.03e-06  |ddm|= 2.82e-05
    CPU time for scf_cycle   1729.80 sec, wall time     54.64 sec
    CPU time for SCF   1729.85 sec, wall time     54.64 sec
converged SCF energy = -415.07793162427
