#INFO: **** input file is /burg/ccce/users/eav2136/projects/batteries/01_mp2/hf_script.py ****
#!/usr/bin/env python3
from pyscf import gto, scf, mp
import sys
from fileutils import dump
import h5py

mol = gto.Mole()
mol.verbose = 10
mol.atom = f"geom_{sys.argv[1]}.xyz"
mol.basis = "ccpvtz"
mol.unit = "ANG"
mol.build()

mf = scf.RHF(mol)
# determine the output of mf.kernel()
mf.kernel()

conv = mf.converged
e_tot = mf.e_tot
mo_energy = mf.mo_energy
mo_coeff = mf.mo_coeff

dataout = {}
dataout["e_tot"] = e_tot
dataout["conv"] = conv
dump(dataout, f"data/hf_geom_{sys.argv[1]}.json")

with h5py.File(f"data/hf_geom_{sys.argv[1]}.h5", "w") as f:
    f.create_dataset("mo_energy", data=mo_energy)
    f.create_dataset("mo_coeff", data=mo_coeff)#INFO: ******************** input file end ********************


System: uname_result(system='Linux', node='g108', release='4.18.0-193.el8.x86_64', version='#1 SMP Fri Mar 27 14:35:58 UTC 2020', machine='x86_64')  Threads 32
Python 3.10.12 (main, Jul 29 2023, 11:27:27) [GCC 13.2.0]
numpy 1.25.1  scipy 1.10.1
Date: Fri Jan 19 11:37:51 2024
PySCF version 2.0.1
PySCF path  /burg/berkelbach/users/eav2136/builds/pyscf/projected-cvs/pyscf
GIT ORIG_HEAD 0bfbc692adf3ea63b8a509210433219cd1c472a2
GIT HEAD (branch projected-cvs) e14caaa2dddc538b9be2d86f01e5b456fc92da36

[ENV] PYSCF_TMPDIR /burg/ccce/users/eav2136/projects/batteries/01_mp2/tmp
[ENV] PYSCF_MAX_MEMORY 700000
[CONFIG] DEBUG = False
[CONFIG] MAX_MEMORY = 700000
[CONFIG] TMPDIR = /burg/ccce/users/eav2136/projects/batteries/01_mp2/tmp
[CONFIG] UNIT = angstrom
[CONFIG] VERBOSE = 3
[CONFIG] conf_file = None
[INPUT] verbose = 10
[INPUT] max_memory = 700000 
[INPUT] num. atoms = 32
[INPUT] num. electrons = 112
[INPUT] charge = 0
[INPUT] spin (= nelec alpha-beta = 2S) = 0
[INPUT] symmetry False subgroup None
[INPUT] Mole.unit = ANG
[INPUT]  1 C      4.889700000000   4.599650000000  10.258310000000 AA    9.240193831286   8.692078768856  19.385396400887 Bohr
[INPUT]  2 O      4.870170000000   4.245790000000   8.952570000000 AA    9.203287480073   8.023380282417  16.917905410997 Bohr
[INPUT]  3 C      5.310840000000   5.193710000000   8.233300000000 AA   10.036033091385   9.814689470415  15.558682101382 Bohr
[INPUT]  4 O      5.765780000000   6.111200000000   8.982240000000 AA   10.895745094495  11.548494292442  16.973973585113 Bohr
[INPUT]  5 C      5.774150000000   5.702340000000  10.272330000000 AA   10.911562102157  10.775860869152  19.411890361153 Bohr
[INPUT]  6 O      5.299720000000   5.216150000000   7.112960000000 AA   10.015019336880   9.857094924650  13.441546334986 Bohr
[INPUT]  7 H      5.212360000000   3.798320000000  10.814180000000 AA    9.849932862638   7.177784533458  20.435838461749 Bohr
[INPUT]  8 H      3.953110000000   4.871240000000  10.548100000000 AA    7.470295240279   9.205309487026  19.933020134525 Bohr
[INPUT]  9 H      5.464720000000   6.479910000000  10.867980000000 AA   10.326824147433  12.245255211830  20.537505727251 Bohr
[INPUT] 10 H      6.716790000000   5.418990000000  10.529430000000 AA   12.692893536217  10.240406971757  19.897738947779 Bohr
[INPUT] 11 Li     5.263950000000   5.263950000000   5.263950000000 AA    9.947423833404   9.947423833404   9.947423833404 Bohr
[INPUT] 12 Li     5.263950000000   1.754650000000   5.263950000000 AA    9.947423833404   3.315807944468   9.947423833404 Bohr
[INPUT] 13 Li     8.773250000000   5.263950000000   5.263950000000 AA   16.579039722340   9.947423833404   9.947423833404 Bohr
[INPUT] 14 Li     1.754650000000   5.263950000000   5.263950000000 AA    3.315807944468   9.947423833404   9.947423833404 Bohr
[INPUT] 15 Li     5.263950000000   8.773250000000   5.263950000000 AA    9.947423833404  16.579039722340   9.947423833404 Bohr
[INPUT] 16 Li     7.018600000000   3.509300000000   3.509300000000 AA   13.263231777872   6.631615888936   6.631615888936 Bohr
[INPUT] 17 Li     3.509300000000   3.509300000000   3.509300000000 AA    6.631615888936   6.631615888936   6.631615888936 Bohr
[INPUT] 18 Li     7.018600000000   7.018600000000   3.509300000000 AA   13.263231777872  13.263231777872   6.631615888936 Bohr
[INPUT] 19 Li     3.509300000000   7.018600000000   3.509300000000 AA    6.631615888936  13.263231777872   6.631615888936 Bohr
[INPUT] 20 Li     8.773250000000   1.754650000000   5.263950000000 AA   16.579039722340   3.315807944468   9.947423833404 Bohr
[INPUT] 21 Li     1.754650000000   1.754650000000   5.263950000000 AA    3.315807944468   3.315807944468   9.947423833404 Bohr
[INPUT] 22 Li     8.773250000000   8.773250000000   5.263950000000 AA   16.579039722340  16.579039722340   9.947423833404 Bohr
[INPUT] 23 Li     1.754650000000   8.773250000000   5.263950000000 AA    3.315807944468  16.579039722340   9.947423833404 Bohr
[INPUT] 24 Li     5.263950000000   5.263950000000   1.754650000000 AA    9.947423833404   9.947423833404   3.315807944468 Bohr
[INPUT] 25 Li     5.263950000000   1.754650000000   1.754650000000 AA    9.947423833404   3.315807944468   3.315807944468 Bohr
[INPUT] 26 Li     8.773250000000   5.263950000000   1.754650000000 AA   16.579039722340   9.947423833404   3.315807944468 Bohr
[INPUT] 27 Li     1.754650000000   5.263950000000   1.754650000000 AA    3.315807944468   9.947423833404   3.315807944468 Bohr
[INPUT] 28 Li     5.263950000000   8.773250000000   1.754650000000 AA    9.947423833404  16.579039722340   3.315807944468 Bohr
[INPUT] 29 Li     7.018600000000   0.000000000000   3.509300000000 AA   13.263231777872   0.000000000000   6.631615888936 Bohr
[INPUT] 30 Li     3.509300000000   0.000000000000   3.509300000000 AA    6.631615888936   0.000000000000   6.631615888936 Bohr
[INPUT] 31 Li     0.000000000000   3.509300000000   3.509300000000 AA    0.000000000000   6.631615888936   6.631615888936 Bohr
[INPUT] 32 Li     0.000000000000   7.018600000000   3.509300000000 AA    0.000000000000  13.263231777872   6.631615888936 Bohr
[INPUT] ---------------- BASIS SET ---------------- 
[INPUT] l, kappa, [nprim/nctr], expnt,             c_1 c_2 ...
[INPUT] Li
[INPUT] 0    0    [9    /2   ]  5988              0.000133 -2.1e-05
                                898.9             0.001025 -0.000161
                                205.9             0.005272 -0.00082
                                59.24             0.020929 -0.003326
                                19.87             0.06634 -0.010519
                                7.406             0.165775 -0.028097
                                2.93              0.315038 -0.055936
                                1.189             0.393523 -0.099237
                                0.4798            0.19087 -0.112189
[INPUT] 0    0    [1    /1   ]  0.07509              1
[INPUT] 0    0    [1    /1   ]  0.02832              1
[INPUT] 1    0    [3    /1   ]  3.266             0.00863
                                0.6511            0.047538
                                0.1696            0.209772
[INPUT] 1    0    [1    /1   ]  0.05578              1
[INPUT] 1    0    [1    /1   ]  0.0205               1
[INPUT] 2    0    [1    /1   ]  0.1874               1
[INPUT] 2    0    [1    /1   ]  0.0801               1
[INPUT] 3    0    [1    /1   ]  0.1829               1
[INPUT] H
[INPUT] 0    0    [3    /1   ]  33.87             0.006068
                                5.095             0.045308
                                1.159             0.202822
[INPUT] 0    0    [1    /1   ]  0.3258               1
[INPUT] 0    0    [1    /1   ]  0.1027               1
[INPUT] 1    0    [1    /1   ]  1.407                1
[INPUT] 1    0    [1    /1   ]  0.388                1
[INPUT] 2    0    [1    /1   ]  1.057                1
[INPUT] O
[INPUT] 0    0    [8    /2   ]  15330             0.000508 -0.000115
                                2299              0.003929 -0.000895
                                522.4             0.020243 -0.004636
                                147.3             0.079181 -0.018724
                                47.55             0.230687 -0.058463
                                16.76             0.433118 -0.136463
                                6.207             0.35026 -0.17574
                                0.6882            -0.008154 0.603418
[INPUT] 0    0    [1    /1   ]  1.752                1
[INPUT] 0    0    [1    /1   ]  0.2384               1
[INPUT] 1    0    [3    /1   ]  34.46             0.015928
                                7.749             0.09974
                                2.28              0.310492
[INPUT] 1    0    [1    /1   ]  0.7156               1
[INPUT] 1    0    [1    /1   ]  0.214                1
[INPUT] 2    0    [1    /1   ]  2.314                1
[INPUT] 2    0    [1    /1   ]  0.645                1
[INPUT] 3    0    [1    /1   ]  1.428                1
[INPUT] C
[INPUT] 0    0    [8    /2   ]  8236              0.000531 -0.000113
                                1235              0.004108 -0.000878
                                280.8             0.021087 -0.00454
                                79.27             0.081853 -0.018133
                                25.59             0.234817 -0.05576
                                8.997             0.434401 -0.126895
                                3.319             0.346129 -0.170352
                                0.3643            -0.008983 0.598684
[INPUT] 0    0    [1    /1   ]  0.9059               1
[INPUT] 0    0    [1    /1   ]  0.1285               1
[INPUT] 1    0    [3    /1   ]  18.71             0.014031
                                4.133             0.086866
                                1.2               0.290216
[INPUT] 1    0    [1    /1   ]  0.3827               1
[INPUT] 1    0    [1    /1   ]  0.1209               1
[INPUT] 2    0    [1    /1   ]  1.097                1
[INPUT] 2    0    [1    /1   ]  0.318                1
[INPUT] 3    0    [1    /1   ]  0.761                1

nuclear repulsion = 746.142173054387
number of shells = 276
number of NR pGTOs = 1262
number of NR cGTOs = 896
basis = ccpvtz
ecp = {}
bas 0, expnt(s) = [8.236e+03 1.235e+03 2.808e+02 7.927e+01 2.559e+01 8.997e+00 3.319e+00
 3.643e-01]
bas 1, expnt(s) = [0.9059]
bas 2, expnt(s) = [0.1285]
bas 3, expnt(s) = [18.71   4.133  1.2  ]
bas 4, expnt(s) = [0.3827]
bas 5, expnt(s) = [0.1209]
bas 6, expnt(s) = [1.097]
bas 7, expnt(s) = [0.318]
bas 8, expnt(s) = [0.761]
bas 9, expnt(s) = [1.533e+04 2.299e+03 5.224e+02 1.473e+02 4.755e+01 1.676e+01 6.207e+00
 6.882e-01]
bas 10, expnt(s) = [1.752]
bas 11, expnt(s) = [0.2384]
bas 12, expnt(s) = [34.46   7.749  2.28 ]
bas 13, expnt(s) = [0.7156]
bas 14, expnt(s) = [0.214]
bas 15, expnt(s) = [2.314]
bas 16, expnt(s) = [0.645]
bas 17, expnt(s) = [1.428]
bas 18, expnt(s) = [8.236e+03 1.235e+03 2.808e+02 7.927e+01 2.559e+01 8.997e+00 3.319e+00
 3.643e-01]
bas 19, expnt(s) = [0.9059]
bas 20, expnt(s) = [0.1285]
bas 21, expnt(s) = [18.71   4.133  1.2  ]
bas 22, expnt(s) = [0.3827]
bas 23, expnt(s) = [0.1209]
bas 24, expnt(s) = [1.097]
bas 25, expnt(s) = [0.318]
bas 26, expnt(s) = [0.761]
bas 27, expnt(s) = [1.533e+04 2.299e+03 5.224e+02 1.473e+02 4.755e+01 1.676e+01 6.207e+00
 6.882e-01]
bas 28, expnt(s) = [1.752]
bas 29, expnt(s) = [0.2384]
bas 30, expnt(s) = [34.46   7.749  2.28 ]
bas 31, expnt(s) = [0.7156]
bas 32, expnt(s) = [0.214]
bas 33, expnt(s) = [2.314]
bas 34, expnt(s) = [0.645]
bas 35, expnt(s) = [1.428]
bas 36, expnt(s) = [8.236e+03 1.235e+03 2.808e+02 7.927e+01 2.559e+01 8.997e+00 3.319e+00
 3.643e-01]
bas 37, expnt(s) = [0.9059]
bas 38, expnt(s) = [0.1285]
bas 39, expnt(s) = [18.71   4.133  1.2  ]
bas 40, expnt(s) = [0.3827]
bas 41, expnt(s) = [0.1209]
bas 42, expnt(s) = [1.097]
bas 43, expnt(s) = [0.318]
bas 44, expnt(s) = [0.761]
bas 45, expnt(s) = [1.533e+04 2.299e+03 5.224e+02 1.473e+02 4.755e+01 1.676e+01 6.207e+00
 6.882e-01]
bas 46, expnt(s) = [1.752]
bas 47, expnt(s) = [0.2384]
bas 48, expnt(s) = [34.46   7.749  2.28 ]
bas 49, expnt(s) = [0.7156]
bas 50, expnt(s) = [0.214]
bas 51, expnt(s) = [2.314]
bas 52, expnt(s) = [0.645]
bas 53, expnt(s) = [1.428]
bas 54, expnt(s) = [33.87   5.095  1.159]
bas 55, expnt(s) = [0.3258]
bas 56, expnt(s) = [0.1027]
bas 57, expnt(s) = [1.407]
bas 58, expnt(s) = [0.388]
bas 59, expnt(s) = [1.057]
bas 60, expnt(s) = [33.87   5.095  1.159]
bas 61, expnt(s) = [0.3258]
bas 62, expnt(s) = [0.1027]
bas 63, expnt(s) = [1.407]
bas 64, expnt(s) = [0.388]
bas 65, expnt(s) = [1.057]
bas 66, expnt(s) = [33.87   5.095  1.159]
bas 67, expnt(s) = [0.3258]
bas 68, expnt(s) = [0.1027]
bas 69, expnt(s) = [1.407]
bas 70, expnt(s) = [0.388]
bas 71, expnt(s) = [1.057]
bas 72, expnt(s) = [33.87   5.095  1.159]
bas 73, expnt(s) = [0.3258]
bas 74, expnt(s) = [0.1027]
bas 75, expnt(s) = [1.407]
bas 76, expnt(s) = [0.388]
bas 77, expnt(s) = [1.057]
bas 78, expnt(s) = [5.988e+03 8.989e+02 2.059e+02 5.924e+01 1.987e+01 7.406e+00 2.930e+00
 1.189e+00 4.798e-01]
bas 79, expnt(s) = [0.07509]
bas 80, expnt(s) = [0.02832]
bas 81, expnt(s) = [3.266  0.6511 0.1696]
bas 82, expnt(s) = [0.05578]
bas 83, expnt(s) = [0.0205]
bas 84, expnt(s) = [0.1874]
bas 85, expnt(s) = [0.0801]
bas 86, expnt(s) = [0.1829]
bas 87, expnt(s) = [5.988e+03 8.989e+02 2.059e+02 5.924e+01 1.987e+01 7.406e+00 2.930e+00
 1.189e+00 4.798e-01]
bas 88, expnt(s) = [0.07509]
bas 89, expnt(s) = [0.02832]
bas 90, expnt(s) = [3.266  0.6511 0.1696]
bas 91, expnt(s) = [0.05578]
bas 92, expnt(s) = [0.0205]
bas 93, expnt(s) = [0.1874]
bas 94, expnt(s) = [0.0801]
bas 95, expnt(s) = [0.1829]
bas 96, expnt(s) = [5.988e+03 8.989e+02 2.059e+02 5.924e+01 1.987e+01 7.406e+00 2.930e+00
 1.189e+00 4.798e-01]
bas 97, expnt(s) = [0.07509]
bas 98, expnt(s) = [0.02832]
bas 99, expnt(s) = [3.266  0.6511 0.1696]
bas 100, expnt(s) = [0.05578]
bas 101, expnt(s) = [0.0205]
bas 102, expnt(s) = [0.1874]
bas 103, expnt(s) = [0.0801]
bas 104, expnt(s) = [0.1829]
bas 105, expnt(s) = [5.988e+03 8.989e+02 2.059e+02 5.924e+01 1.987e+01 7.406e+00 2.930e+00
 1.189e+00 4.798e-01]
bas 106, expnt(s) = [0.07509]
bas 107, expnt(s) = [0.02832]
bas 108, expnt(s) = [3.266  0.6511 0.1696]
bas 109, expnt(s) = [0.05578]
bas 110, expnt(s) = [0.0205]
bas 111, expnt(s) = [0.1874]
bas 112, expnt(s) = [0.0801]
bas 113, expnt(s) = [0.1829]
bas 114, expnt(s) = [5.988e+03 8.989e+02 2.059e+02 5.924e+01 1.987e+01 7.406e+00 2.930e+00
 1.189e+00 4.798e-01]
bas 115, expnt(s) = [0.07509]
bas 116, expnt(s) = [0.02832]
bas 117, expnt(s) = [3.266  0.6511 0.1696]
bas 118, expnt(s) = [0.05578]
bas 119, expnt(s) = [0.0205]
bas 120, expnt(s) = [0.1874]
bas 121, expnt(s) = [0.0801]
bas 122, expnt(s) = [0.1829]
bas 123, expnt(s) = [5.988e+03 8.989e+02 2.059e+02 5.924e+01 1.987e+01 7.406e+00 2.930e+00
 1.189e+00 4.798e-01]
bas 124, expnt(s) = [0.07509]
bas 125, expnt(s) = [0.02832]
bas 126, expnt(s) = [3.266  0.6511 0.1696]
bas 127, expnt(s) = [0.05578]
bas 128, expnt(s) = [0.0205]
bas 129, expnt(s) = [0.1874]
bas 130, expnt(s) = [0.0801]
bas 131, expnt(s) = [0.1829]
bas 132, expnt(s) = [5.988e+03 8.989e+02 2.059e+02 5.924e+01 1.987e+01 7.406e+00 2.930e+00
 1.189e+00 4.798e-01]
bas 133, expnt(s) = [0.07509]
bas 134, expnt(s) = [0.02832]
bas 135, expnt(s) = [3.266  0.6511 0.1696]
bas 136, expnt(s) = [0.05578]
bas 137, expnt(s) = [0.0205]
bas 138, expnt(s) = [0.1874]
bas 139, expnt(s) = [0.0801]
bas 140, expnt(s) = [0.1829]
bas 141, expnt(s) = [5.988e+03 8.989e+02 2.059e+02 5.924e+01 1.987e+01 7.406e+00 2.930e+00
 1.189e+00 4.798e-01]
bas 142, expnt(s) = [0.07509]
bas 143, expnt(s) = [0.02832]
bas 144, expnt(s) = [3.266  0.6511 0.1696]
bas 145, expnt(s) = [0.05578]
bas 146, expnt(s) = [0.0205]
bas 147, expnt(s) = [0.1874]
bas 148, expnt(s) = [0.0801]
bas 149, expnt(s) = [0.1829]
bas 150, expnt(s) = [5.988e+03 8.989e+02 2.059e+02 5.924e+01 1.987e+01 7.406e+00 2.930e+00
 1.189e+00 4.798e-01]
bas 151, expnt(s) = [0.07509]
bas 152, expnt(s) = [0.02832]
bas 153, expnt(s) = [3.266  0.6511 0.1696]
bas 154, expnt(s) = [0.05578]
bas 155, expnt(s) = [0.0205]
bas 156, expnt(s) = [0.1874]
bas 157, expnt(s) = [0.0801]
bas 158, expnt(s) = [0.1829]
bas 159, expnt(s) = [5.988e+03 8.989e+02 2.059e+02 5.924e+01 1.987e+01 7.406e+00 2.930e+00
 1.189e+00 4.798e-01]
bas 160, expnt(s) = [0.07509]
bas 161, expnt(s) = [0.02832]
bas 162, expnt(s) = [3.266  0.6511 0.1696]
bas 163, expnt(s) = [0.05578]
bas 164, expnt(s) = [0.0205]
bas 165, expnt(s) = [0.1874]
bas 166, expnt(s) = [0.0801]
bas 167, expnt(s) = [0.1829]
bas 168, expnt(s) = [5.988e+03 8.989e+02 2.059e+02 5.924e+01 1.987e+01 7.406e+00 2.930e+00
 1.189e+00 4.798e-01]
bas 169, expnt(s) = [0.07509]
bas 170, expnt(s) = [0.02832]
bas 171, expnt(s) = [3.266  0.6511 0.1696]
bas 172, expnt(s) = [0.05578]
bas 173, expnt(s) = [0.0205]
bas 174, expnt(s) = [0.1874]
bas 175, expnt(s) = [0.0801]
bas 176, expnt(s) = [0.1829]
bas 177, expnt(s) = [5.988e+03 8.989e+02 2.059e+02 5.924e+01 1.987e+01 7.406e+00 2.930e+00
 1.189e+00 4.798e-01]
bas 178, expnt(s) = [0.07509]
bas 179, expnt(s) = [0.02832]
bas 180, expnt(s) = [3.266  0.6511 0.1696]
bas 181, expnt(s) = [0.05578]
bas 182, expnt(s) = [0.0205]
bas 183, expnt(s) = [0.1874]
bas 184, expnt(s) = [0.0801]
bas 185, expnt(s) = [0.1829]
bas 186, expnt(s) = [5.988e+03 8.989e+02 2.059e+02 5.924e+01 1.987e+01 7.406e+00 2.930e+00
 1.189e+00 4.798e-01]
bas 187, expnt(s) = [0.07509]
bas 188, expnt(s) = [0.02832]
bas 189, expnt(s) = [3.266  0.6511 0.1696]
bas 190, expnt(s) = [0.05578]
bas 191, expnt(s) = [0.0205]
bas 192, expnt(s) = [0.1874]
bas 193, expnt(s) = [0.0801]
bas 194, expnt(s) = [0.1829]
bas 195, expnt(s) = [5.988e+03 8.989e+02 2.059e+02 5.924e+01 1.987e+01 7.406e+00 2.930e+00
 1.189e+00 4.798e-01]
bas 196, expnt(s) = [0.07509]
bas 197, expnt(s) = [0.02832]
bas 198, expnt(s) = [3.266  0.6511 0.1696]
bas 199, expnt(s) = [0.05578]
bas 200, expnt(s) = [0.0205]
bas 201, expnt(s) = [0.1874]
bas 202, expnt(s) = [0.0801]
bas 203, expnt(s) = [0.1829]
bas 204, expnt(s) = [5.988e+03 8.989e+02 2.059e+02 5.924e+01 1.987e+01 7.406e+00 2.930e+00
 1.189e+00 4.798e-01]
bas 205, expnt(s) = [0.07509]
bas 206, expnt(s) = [0.02832]
bas 207, expnt(s) = [3.266  0.6511 0.1696]
bas 208, expnt(s) = [0.05578]
bas 209, expnt(s) = [0.0205]
bas 210, expnt(s) = [0.1874]
bas 211, expnt(s) = [0.0801]
bas 212, expnt(s) = [0.1829]
bas 213, expnt(s) = [5.988e+03 8.989e+02 2.059e+02 5.924e+01 1.987e+01 7.406e+00 2.930e+00
 1.189e+00 4.798e-01]
bas 214, expnt(s) = [0.07509]
bas 215, expnt(s) = [0.02832]
bas 216, expnt(s) = [3.266  0.6511 0.1696]
bas 217, expnt(s) = [0.05578]
bas 218, expnt(s) = [0.0205]
bas 219, expnt(s) = [0.1874]
bas 220, expnt(s) = [0.0801]
bas 221, expnt(s) = [0.1829]
bas 222, expnt(s) = [5.988e+03 8.989e+02 2.059e+02 5.924e+01 1.987e+01 7.406e+00 2.930e+00
 1.189e+00 4.798e-01]
bas 223, expnt(s) = [0.07509]
bas 224, expnt(s) = [0.02832]
bas 225, expnt(s) = [3.266  0.6511 0.1696]
bas 226, expnt(s) = [0.05578]
bas 227, expnt(s) = [0.0205]
bas 228, expnt(s) = [0.1874]
bas 229, expnt(s) = [0.0801]
bas 230, expnt(s) = [0.1829]
bas 231, expnt(s) = [5.988e+03 8.989e+02 2.059e+02 5.924e+01 1.987e+01 7.406e+00 2.930e+00
 1.189e+00 4.798e-01]
bas 232, expnt(s) = [0.07509]
bas 233, expnt(s) = [0.02832]
bas 234, expnt(s) = [3.266  0.6511 0.1696]
bas 235, expnt(s) = [0.05578]
bas 236, expnt(s) = [0.0205]
bas 237, expnt(s) = [0.1874]
bas 238, expnt(s) = [0.0801]
bas 239, expnt(s) = [0.1829]
bas 240, expnt(s) = [5.988e+03 8.989e+02 2.059e+02 5.924e+01 1.987e+01 7.406e+00 2.930e+00
 1.189e+00 4.798e-01]
bas 241, expnt(s) = [0.07509]
bas 242, expnt(s) = [0.02832]
bas 243, expnt(s) = [3.266  0.6511 0.1696]
bas 244, expnt(s) = [0.05578]
bas 245, expnt(s) = [0.0205]
bas 246, expnt(s) = [0.1874]
bas 247, expnt(s) = [0.0801]
bas 248, expnt(s) = [0.1829]
bas 249, expnt(s) = [5.988e+03 8.989e+02 2.059e+02 5.924e+01 1.987e+01 7.406e+00 2.930e+00
 1.189e+00 4.798e-01]
bas 250, expnt(s) = [0.07509]
bas 251, expnt(s) = [0.02832]
bas 252, expnt(s) = [3.266  0.6511 0.1696]
bas 253, expnt(s) = [0.05578]
bas 254, expnt(s) = [0.0205]
bas 255, expnt(s) = [0.1874]
bas 256, expnt(s) = [0.0801]
bas 257, expnt(s) = [0.1829]
bas 258, expnt(s) = [5.988e+03 8.989e+02 2.059e+02 5.924e+01 1.987e+01 7.406e+00 2.930e+00
 1.189e+00 4.798e-01]
bas 259, expnt(s) = [0.07509]
bas 260, expnt(s) = [0.02832]
bas 261, expnt(s) = [3.266  0.6511 0.1696]
bas 262, expnt(s) = [0.05578]
bas 263, expnt(s) = [0.0205]
bas 264, expnt(s) = [0.1874]
bas 265, expnt(s) = [0.0801]
bas 266, expnt(s) = [0.1829]
bas 267, expnt(s) = [5.988e+03 8.989e+02 2.059e+02 5.924e+01 1.987e+01 7.406e+00 2.930e+00
 1.189e+00 4.798e-01]
bas 268, expnt(s) = [0.07509]
bas 269, expnt(s) = [0.02832]
bas 270, expnt(s) = [3.266  0.6511 0.1696]
bas 271, expnt(s) = [0.05578]
bas 272, expnt(s) = [0.0205]
bas 273, expnt(s) = [0.1874]
bas 274, expnt(s) = [0.0801]
bas 275, expnt(s) = [0.1829]
CPU time:         0.67
arg.atm = [[  6  20   1  23   0   0]
 [  8  24   1  27   0   0]
 [  6  28   1  31   0   0]
 [  8  32   1  35   0   0]
 [  6  36   1  39   0   0]
 [  8  40   1  43   0   0]
 [  1  44   1  47   0   0]
 [  1  48   1  51   0   0]
 [  1  52   1  55   0   0]
 [  1  56   1  59   0   0]
 [  3  60   1  63   0   0]
 [  3  64   1  67   0   0]
 [  3  68   1  71   0   0]
 [  3  72   1  75   0   0]
 [  3  76   1  79   0   0]
 [  3  80   1  83   0   0]
 [  3  84   1  87   0   0]
 [  3  88   1  91   0   0]
 [  3  92   1  95   0   0]
 [  3  96   1  99   0   0]
 [  3 100   1 103   0   0]
 [  3 104   1 107   0   0]
 [  3 108   1 111   0   0]
 [  3 112   1 115   0   0]
 [  3 116   1 119   0   0]
 [  3 120   1 123   0   0]
 [  3 124   1 127   0   0]
 [  3 128   1 131   0   0]
 [  3 132   1 135   0   0]
 [  3 136   1 139   0   0]
 [  3 140   1 143   0   0]
 [  3 144   1 147   0   0]]
arg.bas = [[  0   0   8 ... 255 263   0]
 [  0   0   1 ... 279 280   0]
 [  0   0   1 ... 281 282   0]
 ...
 [ 31   2   1 ... 189 190   0]
 [ 31   2   1 ... 191 192   0]
 [ 31   3   1 ... 193 194   0]]
arg.env = [ 0.00000000e+00  0.00000000e+00  0.00000000e+00  0.00000000e+00
  0.00000000e+00  0.00000000e+00  0.00000000e+00  0.00000000e+00
  0.00000000e+00  0.00000000e+00  0.00000000e+00  0.00000000e+00
  0.00000000e+00  0.00000000e+00  0.00000000e+00  0.00000000e+00
  0.00000000e+00  0.00000000e+00  0.00000000e+00  0.00000000e+00
  9.24019383e+00  8.69207877e+00  1.93853964e+01  0.00000000e+00
  9.20328748e+00  8.02338028e+00  1.69179054e+01  0.00000000e+00
  1.00360331e+01  9.81468947e+00  1.55586821e+01  0.00000000e+00
  1.08957451e+01  1.15484943e+01  1.69739736e+01  0.00000000e+00
  1.09115621e+01  1.07758609e+01  1.94118904e+01  0.00000000e+00
  1.00150193e+01  9.85709492e+00  1.34415463e+01  0.00000000e+00
  9.84993286e+00  7.17778453e+00  2.04358385e+01  0.00000000e+00
  7.47029524e+00  9.20530949e+00  1.99330201e+01  0.00000000e+00
  1.03268241e+01  1.22452552e+01  2.05375057e+01  0.00000000e+00
  1.26928935e+01  1.02404070e+01  1.98977389e+01  0.00000000e+00
  9.94742383e+00  9.94742383e+00  9.94742383e+00  0.00000000e+00
  9.94742383e+00  3.31580794e+00  9.94742383e+00  0.00000000e+00
  1.65790397e+01  9.94742383e+00  9.94742383e+00  0.00000000e+00
  3.31580794e+00  9.94742383e+00  9.94742383e+00  0.00000000e+00
  9.94742383e+00  1.65790397e+01  9.94742383e+00  0.00000000e+00
  1.32632318e+01  6.63161589e+00  6.63161589e+00  0.00000000e+00
  6.63161589e+00  6.63161589e+00  6.63161589e+00  0.00000000e+00
  1.32632318e+01  1.32632318e+01  6.63161589e+00  0.00000000e+00
  6.63161589e+00  1.32632318e+01  6.63161589e+00  0.00000000e+00
  1.65790397e+01  3.31580794e+00  9.94742383e+00  0.00000000e+00
  3.31580794e+00  3.31580794e+00  9.94742383e+00  0.00000000e+00
  1.65790397e+01  1.65790397e+01  9.94742383e+00  0.00000000e+00
  3.31580794e+00  1.65790397e+01  9.94742383e+00  0.00000000e+00
  9.94742383e+00  9.94742383e+00  3.31580794e+00  0.00000000e+00
  9.94742383e+00  3.31580794e+00  3.31580794e+00  0.00000000e+00
  1.65790397e+01  9.94742383e+00  3.31580794e+00  0.00000000e+00
  3.31580794e+00  9.94742383e+00  3.31580794e+00  0.00000000e+00
  9.94742383e+00  1.65790397e+01  3.31580794e+00  0.00000000e+00
  1.32632318e+01  0.00000000e+00  6.63161589e+00  0.00000000e+00
  6.63161589e+00  0.00000000e+00  6.63161589e+00  0.00000000e+00
  0.00000000e+00  6.63161589e+00  6.63161589e+00  0.00000000e+00
  0.00000000e+00  1.32632318e+01  6.63161589e+00  0.00000000e+00
  5.98800000e+03  8.98900000e+02  2.05900000e+02  5.92400000e+01
  1.98700000e+01  7.40600000e+00  2.93000000e+00  1.18900000e+00
  4.79800000e-01  2.29069316e-01  4.25756548e-01  7.25056076e-01
  1.13074246e+00  1.57971158e+00  1.88304523e+00  1.78512072e+00
  1.13373211e+00  2.78411257e-01 -1.33552750e-01 -2.46934407e-01
 -4.16416863e-01 -6.63522613e-01 -9.24900580e-01 -1.17847379e+00
 -1.17034612e+00 -1.05567981e+00 -6.04251387e-01  7.50900000e-02
  3.62411193e-01  2.83200000e-02  1.74415453e-01  3.26600000e+00
  6.51100000e-01  1.69600000e-01  4.55280795e-01  3.34078737e-01
  2.74333054e-01  5.57800000e-02  7.90828897e-02  2.05000000e-02
  2.26295917e-02  1.87400000e-01  1.39275961e-01  8.01000000e-02
  3.14692425e-02  1.82900000e-01  4.31510332e-02  3.38700000e+01
  5.09500000e+00  1.15900000e+00  9.04334519e-01  1.63100455e+00
  2.40491525e+00  3.25800000e-01  1.08950276e+00  1.02700000e-01
  4.58345379e-01  1.40700000e+00  4.47045795e+00  3.88000000e-01
  8.93354953e-01  1.05700000e+00  2.87515071e+00  1.53300000e+04
  2.29900000e+03  5.22400000e+02  1.47300000e+02  4.75500000e+01
  1.67600000e+01  6.20700000e+00  6.88200000e-01  1.81067529e+00
  3.37486577e+00  5.72265412e+00  8.66150357e+00  1.08070276e+01
  9.28179538e+00  3.56346173e+00 -1.59395830e-02 -6.86527364e-01
 -1.28759909e+00 -2.19507417e+00 -3.43047366e+00 -4.58719692e+00
 -4.89805685e+00 -2.99457591e+00  1.97563931e+00  1.75200000e+00
  3.84738459e+00  2.38400000e-01  8.61975084e-01  3.44600000e+01
  7.74900000e+00  2.28000000e+00  1.00262994e+01  9.72213774e+00
  6.55849668e+00  7.15600000e-01  1.92009319e+00  2.14000000e-01
  4.24621137e-01  2.31400000e+00  1.13283134e+01  6.45000000e-01
  1.21132000e+00  1.42800000e+00  4.39692268e+00  8.23600000e+03
  1.23500000e+03  2.80800000e+02  7.92700000e+01  2.55900000e+01
  8.99700000e+00  3.31900000e+00  3.64300000e-01  1.18480296e+00
  2.20874210e+00  3.73316324e+00  5.61216719e+00  6.89519583e+00
  5.82409515e+00  2.19663441e+00 -1.08712663e-02 -4.28969670e-01
 -8.03166571e-01 -1.36745981e+00 -2.11525239e+00 -2.78571299e+00
 -2.89453423e+00 -1.83934657e+00  1.23268730e+00  9.05900000e-01
  2.34598494e+00  1.28500000e-01  5.42241022e-01  1.87100000e+01
  4.13300000e+00  1.20000000e+00  4.47572721e+00  4.19627876e+00
  2.98800046e+00  3.82700000e-01  8.78127282e-01  1.20900000e-01
  2.07977938e-01  1.09700000e+00  3.06825171e+00  3.18000000e-01
  3.51379844e-01  7.61000000e-01  1.06690522e+00]
ecpbas  = []


******** <class 'pyscf.scf.hf.RHF'> ********
method = RHF
initial guess = minao
damping factor = 0
level_shift factor = 0
DIIS = <class 'pyscf.scf.diis.CDIIS'>
diis_start_cycle = 1
diis_space = 8
SCF conv_tol = 1e-09
SCF conv_tol_grad = None
SCF max_cycles = 50
direct_scf = True
direct_scf_tol = 1e-13
chkfile to save SCF result = /burg/ccce/users/eav2136/projects/batteries/01_mp2/tmp/tmpcl7lokub
max_memory 700000 MB (current use 95 MB)
Set gradient conv threshold to 3.16228e-05
Nelec from initial guess = 111.99824783903557
E1 = -2163.9478224617797  E_coul = 909.1947941887731
init E= -508.610855218619
cond(S) = 4066887.881783331
    CPU time for initialize scf   3220.26 sec, wall time    101.74 sec
  HOMO = -0.0911053988894695  LUMO = -0.0898510349721322
  mo_energy =
[-2.08435931e+01 -2.07936090e+01 -2.07926151e+01 -1.13785850e+01
 -1.13528350e+01 -1.13477145e+01 -2.52295855e+00 -2.51657719e+00
 -2.51595254e+00 -2.51386724e+00 -2.51304117e+00 -2.50580070e+00
 -2.50412103e+00 -2.50371449e+00 -2.50011877e+00 -2.49981053e+00
 -2.49578123e+00 -2.49530413e+00 -2.49485893e+00 -2.49468799e+00
 -2.49448982e+00 -2.49438553e+00 -2.49378450e+00 -2.49073406e+00
 -2.49050204e+00 -2.49023224e+00 -2.49008898e+00 -2.48555101e+00
 -2.16879072e+00 -1.79614017e+00 -1.65780203e+00 -1.33707104e+00
 -1.05210453e+00 -9.01344452e-01 -8.03096459e-01 -7.85399676e-01
 -6.88632186e-01 -6.63969675e-01 -6.21427663e-01 -5.70174536e-01
 -5.57776167e-01 -5.00319693e-01 -4.94104149e-01 -4.38026555e-01
 -4.04061373e-01 -3.76069497e-01 -3.64549922e-01 -3.24602075e-01
 -2.25182675e-01 -2.21378445e-01 -2.14693508e-01 -1.83204192e-01
 -1.39144323e-01 -1.31745666e-01 -1.02728227e-01 -9.11053989e-02
 -8.98510350e-02 -8.49022834e-02 -4.90419553e-02 -4.72469714e-02
 -3.45973841e-02 -2.70287269e-02 -2.27715919e-02 -1.64676999e-02
 -1.41551290e-02 -1.37866609e-02 -7.07788944e-03 -6.45192095e-04
  1.24009112e-03  8.21552560e-03  1.09766732e-02  1.49862647e-02
  1.81313647e-02  2.00059165e-02  2.44175518e-02  2.83952434e-02
  3.21359427e-02  3.31635515e-02  3.38797039e-02  4.13515559e-02
  4.27068684e-02  4.45308083e-02  4.52358092e-02  4.79215106e-02
  4.92367590e-02  5.05521051e-02  5.15223159e-02  5.20096764e-02
  5.40729242e-02  5.44084762e-02  5.70085130e-02  5.81063427e-02
  6.05664319e-02  6.12561245e-02  6.34472288e-02  6.38225288e-02
  6.52150945e-02  6.60252406e-02  6.79673829e-02  6.88595842e-02
  7.27150053e-02  7.46982473e-02  7.55992727e-02  7.68772785e-02
  7.72089324e-02  7.80393646e-02  8.04066147e-02  8.13149416e-02
  8.16903508e-02  8.41431792e-02  8.44443548e-02  8.75331852e-02
  8.81843632e-02  9.28507647e-02  9.42184635e-02  9.52487266e-02
  9.83011634e-02  9.99862415e-02  1.00153478e-01  1.00719847e-01
  1.01561212e-01  1.03314027e-01  1.03907132e-01  1.06699940e-01
  1.09479344e-01  1.09870486e-01  1.11039783e-01  1.13326024e-01
  1.14300924e-01  1.16139932e-01  1.18769967e-01  1.19214754e-01
  1.20588481e-01  1.22526153e-01  1.23695538e-01  1.24932056e-01
  1.26232446e-01  1.27747562e-01  1.30054124e-01  1.30689891e-01
  1.31108177e-01  1.31996423e-01  1.33268460e-01  1.34859061e-01
  1.35727043e-01  1.38285438e-01  1.39203319e-01  1.42370248e-01
  1.44253632e-01  1.44550050e-01  1.46797417e-01  1.49466392e-01
  1.50307691e-01  1.53858230e-01  1.54649203e-01  1.57595810e-01
  1.58629047e-01  1.59272082e-01  1.61123640e-01  1.64810382e-01
  1.66094454e-01  1.66793092e-01  1.70055410e-01  1.71807151e-01
  1.74603243e-01  1.78389423e-01  1.80812885e-01  1.82023649e-01
  1.83895797e-01  1.84430836e-01  1.85256964e-01  1.86242104e-01
  1.87837378e-01  1.89860260e-01  1.94462591e-01  1.95257084e-01
  1.96573140e-01  1.97269149e-01  1.99262939e-01  2.01980664e-01
  2.02387679e-01  2.03640442e-01  2.03700942e-01  2.04969062e-01
  2.06522242e-01  2.09160407e-01  2.10529149e-01  2.12818452e-01
  2.14286645e-01  2.15344027e-01  2.17295466e-01  2.19585155e-01
  2.19888924e-01  2.20956361e-01  2.24854954e-01  2.25042133e-01
  2.28276873e-01  2.28977583e-01  2.32254735e-01  2.33547890e-01
  2.36576425e-01  2.38667486e-01  2.42130897e-01  2.44495280e-01
  2.46251242e-01  2.48698175e-01  2.50817491e-01  2.52771063e-01
  2.56151592e-01  2.57440316e-01  2.60582430e-01  2.63606975e-01
  2.66439378e-01  2.67089853e-01  2.72517196e-01  2.75552507e-01
  2.78134834e-01  2.80254807e-01  2.82922276e-01  2.84570435e-01
  2.86088264e-01  2.90364882e-01  2.93848710e-01  2.95199608e-01
  2.96628748e-01  2.98513748e-01  3.01302956e-01  3.02648384e-01
  3.04302930e-01  3.05437178e-01  3.06324954e-01  3.08775980e-01
  3.10863986e-01  3.12741944e-01  3.14082528e-01  3.14797565e-01
  3.19599001e-01  3.21982572e-01  3.23288411e-01  3.24558189e-01
  3.29416796e-01  3.30377094e-01  3.33660780e-01  3.36401529e-01
  3.41126572e-01  3.44091923e-01  3.46501495e-01  3.47402627e-01
  3.48806765e-01  3.50062428e-01  3.51145119e-01  3.53143900e-01
  3.58000635e-01  3.60099831e-01  3.61149184e-01  3.61860973e-01
  3.65893269e-01  3.66502074e-01  3.70058989e-01  3.71364709e-01
  3.76670466e-01  3.80023489e-01  3.83259741e-01  3.84877135e-01
  3.86276835e-01  3.89592883e-01  3.91486455e-01  3.92071874e-01
  3.93523637e-01  3.97639266e-01  3.97983817e-01  4.00501715e-01
  4.01596379e-01  4.02696119e-01  4.03288592e-01  4.06672259e-01
  4.09088498e-01  4.10612739e-01  4.11593000e-01  4.14590179e-01
  4.15526199e-01  4.19615929e-01  4.19996484e-01  4.21182657e-01
  4.21903031e-01  4.24092991e-01  4.27060442e-01  4.30134329e-01
  4.31719216e-01  4.33182200e-01  4.34208460e-01  4.34875492e-01
  4.36690108e-01  4.38606963e-01  4.41818637e-01  4.43092455e-01
  4.43846024e-01  4.45146806e-01  4.46442161e-01  4.47901199e-01
  4.50957532e-01  4.53314930e-01  4.55096635e-01  4.56665072e-01
  4.58943161e-01  4.61315944e-01  4.62973773e-01  4.65613984e-01
  4.69282712e-01  4.69454787e-01  4.73926993e-01  4.74683545e-01
  4.78509267e-01  4.79032914e-01  4.81881106e-01  4.82252252e-01
  4.83278283e-01  4.84830448e-01  4.86075086e-01  4.87339591e-01
  4.89485707e-01  4.90938164e-01  4.94564385e-01  4.96721740e-01
  4.96894319e-01  4.97628008e-01  5.00423590e-01  5.03556823e-01
  5.05827436e-01  5.07469202e-01  5.08379340e-01  5.11386947e-01
  5.12771147e-01  5.16705850e-01  5.19815964e-01  5.20458952e-01
  5.22676470e-01  5.24289001e-01  5.26051461e-01  5.26838842e-01
  5.29685285e-01  5.33376261e-01  5.33841144e-01  5.36931052e-01
  5.40753606e-01  5.43128256e-01  5.46176412e-01  5.50175279e-01
  5.52761152e-01  5.54051515e-01  5.59392879e-01  5.59917338e-01
  5.61779345e-01  5.62391211e-01  5.65761087e-01  5.67618838e-01
  5.68852923e-01  5.74356368e-01  5.76034796e-01  5.76839304e-01
  5.78150273e-01  5.85149659e-01  5.87327617e-01  5.89447986e-01
  5.94612398e-01  5.96446383e-01  5.98879408e-01  5.99807518e-01
  6.03222487e-01  6.08255753e-01  6.09442809e-01  6.10447102e-01
  6.14289447e-01  6.16540200e-01  6.18523510e-01  6.24291911e-01
  6.28860081e-01  6.30558414e-01  6.33238851e-01  6.33856001e-01
  6.35371895e-01  6.37872160e-01  6.41447658e-01  6.44045165e-01
  6.44909317e-01  6.48786909e-01  6.51303072e-01  6.53191587e-01
  6.55191947e-01  6.55686102e-01  6.57040894e-01  6.58268798e-01
  6.65861715e-01  6.67651855e-01  6.68967191e-01  6.71010759e-01
  6.71505754e-01  6.73033971e-01  6.77121476e-01  6.78712027e-01
  6.79962243e-01  6.82431234e-01  6.85919124e-01  6.86697613e-01
  6.88782879e-01  6.90676039e-01  6.92135028e-01  6.95101547e-01
  6.98158172e-01  7.00984434e-01  7.02646523e-01  7.05916326e-01
  7.09085266e-01  7.10361242e-01  7.13279474e-01  7.15280115e-01
  7.16868512e-01  7.22052862e-01  7.26307147e-01  7.27343908e-01
  7.30168957e-01  7.33462722e-01  7.35864739e-01  7.38580570e-01
  7.40242634e-01  7.40818902e-01  7.43152026e-01  7.45118007e-01
  7.46425307e-01  7.50427178e-01  7.51377558e-01  7.56665871e-01
  7.58131474e-01  7.59825276e-01  7.61045396e-01  7.64693437e-01
  7.65792999e-01  7.68701381e-01  7.70401562e-01  7.72869897e-01
  7.76551032e-01  7.77704088e-01  7.82828139e-01  7.85027639e-01
  7.87977857e-01  7.88866587e-01  7.92647877e-01  7.94527567e-01
  7.98717772e-01  7.99799556e-01  8.01821224e-01  8.04175495e-01
  8.06412985e-01  8.08371806e-01  8.11108679e-01  8.14206689e-01
  8.17061861e-01  8.19434871e-01  8.22570069e-01  8.23324038e-01
  8.26711056e-01  8.29029689e-01  8.29904309e-01  8.31689050e-01
  8.32319044e-01  8.35771207e-01  8.38154497e-01  8.39062410e-01
  8.43813605e-01  8.47000672e-01  8.49429229e-01  8.50594374e-01
  8.53755620e-01  8.54514060e-01  8.57158644e-01  8.58113028e-01
  8.60293880e-01  8.61187022e-01  8.63421753e-01  8.65773693e-01
  8.68918650e-01  8.71462420e-01  8.73415075e-01  8.74453678e-01
  8.77263581e-01  8.78842365e-01  8.80380090e-01  8.83583272e-01
  8.85653000e-01  8.86032649e-01  8.88604795e-01  8.89838575e-01
  8.93240161e-01  8.96560280e-01  8.99114963e-01  9.01955137e-01
  9.05025849e-01  9.06972787e-01  9.08887756e-01  9.13775195e-01
  9.14183405e-01  9.16500128e-01  9.18861579e-01  9.20168325e-01
  9.23296031e-01  9.25336240e-01  9.27123828e-01  9.29072645e-01
  9.32634388e-01  9.33535401e-01  9.36882759e-01  9.37625076e-01
  9.39201054e-01  9.43127070e-01  9.44523402e-01  9.46390856e-01
  9.47792146e-01  9.51647245e-01  9.53790811e-01  9.56826492e-01
  9.58626122e-01  9.59671656e-01  9.60662280e-01  9.67149601e-01
  9.69358224e-01  9.74193235e-01  9.75084482e-01  9.80178770e-01
  9.81018403e-01  9.82467558e-01  9.83635236e-01  9.85931806e-01
  9.86842412e-01  9.90173735e-01  9.92022602e-01  9.93824608e-01
  9.97085061e-01  1.00245974e+00  1.00346539e+00  1.00472224e+00
  1.00529972e+00  1.00828904e+00  1.01090251e+00  1.01281957e+00
  1.01464695e+00  1.01696520e+00  1.01854690e+00  1.02057948e+00
  1.02239333e+00  1.02455596e+00  1.02886953e+00  1.03091479e+00
  1.03235877e+00  1.03442487e+00  1.03588780e+00  1.03859310e+00
  1.04077150e+00  1.04406607e+00  1.04679415e+00  1.04840908e+00
  1.05121631e+00  1.05203710e+00  1.05320024e+00  1.05603490e+00
  1.06010781e+00  1.06172537e+00  1.06486078e+00  1.06640522e+00
  1.07043220e+00  1.07450419e+00  1.07579723e+00  1.07690170e+00
  1.08121230e+00  1.08166096e+00  1.08339394e+00  1.08462790e+00
  1.08780731e+00  1.09240334e+00  1.09570839e+00  1.09607024e+00
  1.10050330e+00  1.10140825e+00  1.10638431e+00  1.11004332e+00
  1.11480235e+00  1.11555543e+00  1.11905371e+00  1.12019315e+00
  1.12271561e+00  1.12853865e+00  1.12990235e+00  1.13061654e+00
  1.13233159e+00  1.13390477e+00  1.13432215e+00  1.13826241e+00
  1.14023977e+00  1.14778251e+00  1.14932394e+00  1.15118664e+00
  1.15671063e+00  1.15851138e+00  1.16214395e+00  1.16440329e+00
  1.16606215e+00  1.16859875e+00  1.16973896e+00  1.17063493e+00
  1.17547264e+00  1.17570173e+00  1.18148961e+00  1.18340658e+00
  1.18394798e+00  1.18547452e+00  1.19097493e+00  1.19339096e+00
  1.19442388e+00  1.19631146e+00  1.19750471e+00  1.20421720e+00
  1.20531705e+00  1.20872385e+00  1.21271898e+00  1.21323132e+00
  1.21589287e+00  1.22060917e+00  1.22545606e+00  1.22623064e+00
  1.23066858e+00  1.23248719e+00  1.23485902e+00  1.23969833e+00
  1.24050351e+00  1.24397711e+00  1.24504090e+00  1.24721845e+00
  1.24847914e+00  1.25032673e+00  1.25429184e+00  1.25779805e+00
  1.25900001e+00  1.26001066e+00  1.26053444e+00  1.26231565e+00
  1.26706362e+00  1.26727109e+00  1.27360987e+00  1.27578529e+00
  1.28085475e+00  1.28416071e+00  1.28865982e+00  1.29134665e+00
  1.29592564e+00  1.29924937e+00  1.30450829e+00  1.30734270e+00
  1.30789371e+00  1.31034261e+00  1.31432269e+00  1.31737835e+00
  1.32055915e+00  1.32732087e+00  1.32967293e+00  1.32990900e+00
  1.33292957e+00  1.33646884e+00  1.33791127e+00  1.34475048e+00
  1.34568855e+00  1.35370267e+00  1.35696181e+00  1.36446066e+00
  1.36484914e+00  1.37015381e+00  1.37354396e+00  1.37592565e+00
  1.37908758e+00  1.38215985e+00  1.39093557e+00  1.39346097e+00
  1.39765325e+00  1.39937145e+00  1.40180965e+00  1.40537294e+00
  1.40891233e+00  1.41544857e+00  1.42063897e+00  1.42497375e+00
  1.43147119e+00  1.43200999e+00  1.43458062e+00  1.43688982e+00
  1.44383850e+00  1.44481650e+00  1.44792086e+00  1.45602849e+00
  1.46293558e+00  1.46574343e+00  1.47552833e+00  1.47865644e+00
  1.48466451e+00  1.49084311e+00  1.49497489e+00  1.50047282e+00
  1.50626759e+00  1.52666476e+00  1.53548053e+00  1.55383255e+00
  1.57023262e+00  1.57212407e+00  1.57521979e+00  1.59260882e+00
  1.60774347e+00  1.61079204e+00  1.61226599e+00  1.62353938e+00
  1.63048246e+00  1.67023626e+00  1.67769135e+00  1.70029397e+00
  1.75431346e+00  1.81550861e+00  1.83010076e+00  1.88322082e+00
  1.89119742e+00  1.92437792e+00  1.95903245e+00  2.00786334e+00
  2.06108363e+00  2.06622277e+00  2.15181108e+00  2.22382002e+00
  2.27634141e+00  2.32951125e+00  2.39232986e+00  2.41326702e+00
  2.46362973e+00  2.48016582e+00  2.50489133e+00  2.56312224e+00
  2.62700359e+00  2.69109505e+00  2.71125444e+00  2.71554107e+00
  2.76125487e+00  2.81925765e+00  2.85188401e+00  2.85791821e+00
  2.87287046e+00  2.88890769e+00  2.97315677e+00  3.01371942e+00
  3.02734134e+00  3.07055761e+00  3.11366274e+00  3.13262829e+00
  3.15080974e+00  3.18427255e+00  3.20308816e+00  3.24098746e+00
  3.26637509e+00  3.26751596e+00  3.29552842e+00  3.30756648e+00
  3.32869991e+00  3.35089036e+00  3.35814434e+00  3.36336661e+00
  3.37727265e+00  3.39920502e+00  3.40928795e+00  3.41077767e+00
  3.41550517e+00  3.44353881e+00  3.45594568e+00  3.46996064e+00
  3.47891760e+00  3.48932085e+00  3.50279754e+00  3.51881374e+00
  3.52878486e+00  3.53457612e+00  3.53936392e+00  3.54785730e+00
  3.59038352e+00  3.61739115e+00  3.62525502e+00  3.63718577e+00
  3.66538558e+00  3.68453162e+00  3.68908327e+00  3.69106946e+00
  3.71293172e+00  3.75362519e+00  3.77303798e+00  3.80061251e+00
  3.84955761e+00  3.85901796e+00  3.87208441e+00  3.90624496e+00
  3.90671510e+00  3.93004725e+00  3.94331607e+00  3.95695338e+00
  3.98088016e+00  4.00796326e+00  4.04002851e+00  4.04587047e+00
  4.07026136e+00  4.07147420e+00  4.10108938e+00  4.15588461e+00
  4.24876461e+00  4.28512433e+00  4.29477749e+00  4.29686903e+00
  4.38395749e+00  4.38943097e+00  4.40262314e+00  4.43751017e+00
  4.43932404e+00  4.50801089e+00  4.53151362e+00  4.53747300e+00
  4.60682394e+00  4.64645936e+00  4.66377794e+00  4.67684052e+00
  4.71036084e+00  4.78715097e+00  4.82271826e+00  4.94077960e+00
  5.00542248e+00  5.03459867e+00  5.06172048e+00  5.12184149e+00
  5.13318431e+00  5.29525162e+00  5.31283678e+00  5.37699394e+00
  5.42985757e+00  5.43310548e+00  5.43656879e+00  5.47943960e+00
  5.51501653e+00  5.51841647e+00  5.58007461e+00  5.65475342e+00
  5.72388465e+00  5.74203970e+00  5.82425391e+00  5.83824012e+00
  5.95028626e+00  5.95525839e+00  6.02828111e+00  6.05697462e+00
  6.10000556e+00  6.11576825e+00  6.15145134e+00  6.16768909e+00
  6.25466409e+00  6.34892932e+00  6.41888972e+00  6.42569132e+00
  6.42912771e+00  6.54060573e+00  6.60274641e+00  6.64247919e+00
  6.69214148e+00  6.77682768e+00  6.82940504e+00  6.87453035e+00
  6.87803589e+00  6.95462438e+00  7.01874417e+00  7.11780558e+00
  7.15231681e+00  7.22587582e+00  7.26159675e+00  7.27967627e+00
  7.30748202e+00  7.36775118e+00  7.42760164e+00  7.45213495e+00
  7.63608094e+00  7.69282859e+00  7.82398271e+00  7.90618686e+00
  8.02862609e+00  8.37668102e+00  1.12182264e+01  1.30985569e+01
  1.33151958e+01  1.40845038e+01  1.59019161e+01  1.75056655e+01]
E1 = -2171.3910663370707  E_coul = 921.0911844529637
cycle= 1 E= -504.15770882972  delta_E= 4.45  |g|= 0.99  |ddm|= 6.48
    CPU time for cycle= 1    590.84 sec, wall time     18.71 sec
diis-norm(errvec)=4.05427
diis-c [-16.43709878   1.        ]
  HOMO = -0.0542743487637945  LUMO = 0.000565186550951438
  mo_energy =
[-2.06100989e+01 -2.06005363e+01 -2.02557681e+01 -1.16776491e+01
 -1.14525941e+01 -1.14480359e+01 -2.48514049e+00 -2.44372916e+00
 -2.44327568e+00 -2.42730524e+00 -2.42483149e+00 -2.42412484e+00
 -2.42373004e+00 -2.41368786e+00 -2.41295391e+00 -2.41245658e+00
 -2.41094259e+00 -2.40851282e+00 -2.35665613e+00 -2.35410350e+00
 -2.35323193e+00 -2.33620411e+00 -2.33442059e+00 -2.30662065e+00
 -2.27340044e+00 -2.27289127e+00 -2.25881323e+00 -2.24318774e+00
 -1.69310184e+00 -1.50924406e+00 -1.42970981e+00 -1.20317114e+00
 -1.03763305e+00 -9.33972351e-01 -8.77893562e-01 -8.17847551e-01
 -7.86542587e-01 -7.18916986e-01 -7.06120548e-01 -6.36770668e-01
 -6.18196109e-01 -5.98080994e-01 -5.36029825e-01 -4.64516551e-01
 -4.22628574e-01 -2.36135721e-01 -2.09743974e-01 -2.08081518e-01
 -1.59307977e-01 -1.56115601e-01 -1.42755210e-01 -1.11166781e-01
 -1.02173004e-01 -9.35430051e-02 -7.87588024e-02 -5.42743488e-02
  5.65186551e-04  1.05992118e-03  1.27719747e-02  1.66414405e-02
  2.12798597e-02  2.35848520e-02  2.48500333e-02  2.92043172e-02
  2.98671588e-02  3.40809727e-02  3.51688234e-02  3.56697381e-02
  3.94073565e-02  4.27552140e-02  4.68740659e-02  4.86461451e-02
  5.10848223e-02  5.15682907e-02  5.50167322e-02  5.56392274e-02
  5.65180430e-02  5.95554931e-02  5.97486061e-02  6.16697401e-02
  6.36771294e-02  6.46857486e-02  6.84783643e-02  7.09296337e-02
  7.22918987e-02  7.33598294e-02  7.44046685e-02  7.66469404e-02
  7.79104466e-02  8.04015570e-02  8.21295502e-02  8.27922602e-02
  8.50422596e-02  8.61513244e-02  8.82257991e-02  8.82404542e-02
  8.96114549e-02  9.30263488e-02  9.37362358e-02  9.54028896e-02
  9.58573490e-02  9.66952951e-02  9.74408285e-02  9.96518936e-02
  1.01965770e-01  1.03145088e-01  1.05169265e-01  1.06129322e-01
  1.06356344e-01  1.09940666e-01  1.11897492e-01  1.13325202e-01
  1.14594594e-01  1.16223835e-01  1.16984593e-01  1.19818556e-01
  1.22874640e-01  1.23811157e-01  1.24049983e-01  1.25972875e-01
  1.27018369e-01  1.28456806e-01  1.30364251e-01  1.31161972e-01
  1.32056339e-01  1.34269340e-01  1.34961253e-01  1.37939440e-01
  1.38432829e-01  1.39750578e-01  1.44879272e-01  1.46986630e-01
  1.47472751e-01  1.48173221e-01  1.51958033e-01  1.54025361e-01
  1.57729256e-01  1.57975946e-01  1.61116869e-01  1.62267465e-01
  1.64088968e-01  1.66184409e-01  1.67158487e-01  1.68900281e-01
  1.71246753e-01  1.72754043e-01  1.78558279e-01  1.79807480e-01
  1.82083227e-01  1.85356613e-01  1.85648215e-01  1.86920343e-01
  1.87822717e-01  1.93296986e-01  1.93712026e-01  1.96044235e-01
  1.97386295e-01  1.98393913e-01  1.98552597e-01  2.02934104e-01
  2.04198495e-01  2.05812037e-01  2.07570704e-01  2.10117319e-01
  2.12340521e-01  2.14106324e-01  2.17013025e-01  2.17753744e-01
  2.20773189e-01  2.24829428e-01  2.26506546e-01  2.26698547e-01
  2.29424114e-01  2.31387461e-01  2.31690078e-01  2.34993562e-01
  2.36010198e-01  2.37238275e-01  2.38067407e-01  2.39749230e-01
  2.45565197e-01  2.47677238e-01  2.48846131e-01  2.49566666e-01
  2.50883258e-01  2.52696502e-01  2.56881151e-01  2.57941308e-01
  2.58998654e-01  2.61393378e-01  2.63752439e-01  2.64901556e-01
  2.69111524e-01  2.69524535e-01  2.74116256e-01  2.75983123e-01
  2.80435222e-01  2.82646357e-01  2.84254918e-01  2.89501800e-01
  2.91858859e-01  2.94549656e-01  2.95749404e-01  2.96856632e-01
  3.00652713e-01  3.01451361e-01  3.06217004e-01  3.10077664e-01
  3.11476053e-01  3.15334001e-01  3.16642368e-01  3.18282223e-01
  3.21646380e-01  3.22232418e-01  3.23631036e-01  3.24677352e-01
  3.27106618e-01  3.29758186e-01  3.36378996e-01  3.38670310e-01
  3.40855647e-01  3.42727065e-01  3.45609564e-01  3.48252154e-01
  3.51145517e-01  3.52474715e-01  3.59755375e-01  3.61732564e-01
  3.63834038e-01  3.66622201e-01  3.68189761e-01  3.70108763e-01
  3.73772248e-01  3.76042169e-01  3.77945033e-01  3.79248384e-01
  3.85596657e-01  3.87124529e-01  3.88591477e-01  3.89220750e-01
  3.90346960e-01  3.91862968e-01  3.93579006e-01  3.95676636e-01
  3.96963014e-01  4.02495909e-01  4.03363743e-01  4.05759996e-01
  4.07140367e-01  4.09059328e-01  4.10797289e-01  4.14458818e-01
  4.17173288e-01  4.20821325e-01  4.22535385e-01  4.24070414e-01
  4.25530206e-01  4.27139458e-01  4.31264317e-01  4.33061879e-01
  4.33897168e-01  4.37895894e-01  4.38277157e-01  4.41103155e-01
  4.43873494e-01  4.45268405e-01  4.47465581e-01  4.48830884e-01
  4.50491453e-01  4.54504517e-01  4.55790449e-01  4.58311132e-01
  4.60978122e-01  4.63653631e-01  4.65650045e-01  4.68135808e-01
  4.68506282e-01  4.68996113e-01  4.72594181e-01  4.75692948e-01
  4.76581641e-01  4.79238591e-01  4.82380839e-01  4.84745012e-01
  4.86477263e-01  4.88176699e-01  4.88960156e-01  4.91368805e-01
  4.92688399e-01  4.93553395e-01  4.95763963e-01  4.96477060e-01
  4.97828632e-01  4.98597268e-01  5.00634979e-01  5.03669041e-01
  5.07093443e-01  5.08598112e-01  5.11394358e-01  5.13528760e-01
  5.15094840e-01  5.16460368e-01  5.16927716e-01  5.17329490e-01
  5.18494808e-01  5.24356940e-01  5.24624274e-01  5.26750169e-01
  5.28929401e-01  5.32960149e-01  5.34303381e-01  5.36183780e-01
  5.38144529e-01  5.38964395e-01  5.40807029e-01  5.42698451e-01
  5.46998360e-01  5.48734498e-01  5.51187764e-01  5.52109679e-01
  5.55377715e-01  5.57236225e-01  5.59809585e-01  5.63162484e-01
  5.66615728e-01  5.67714364e-01  5.69635302e-01  5.71831389e-01
  5.72890925e-01  5.74696311e-01  5.75746181e-01  5.77643217e-01
  5.79618665e-01  5.82510769e-01  5.83122238e-01  5.83903406e-01
  5.87014859e-01  5.92613645e-01  5.93282240e-01  5.93934075e-01
  6.01638112e-01  6.03705331e-01  6.05748272e-01  6.08475281e-01
  6.09405974e-01  6.13248742e-01  6.14982796e-01  6.17233966e-01
  6.18110466e-01  6.20628437e-01  6.22082283e-01  6.29047542e-01
  6.29299639e-01  6.30253252e-01  6.32531433e-01  6.35840178e-01
  6.38050546e-01  6.39078275e-01  6.42395758e-01  6.45109743e-01
  6.45933333e-01  6.48553403e-01  6.50438552e-01  6.55312887e-01
  6.56914667e-01  6.57939732e-01  6.63384731e-01  6.65084010e-01
  6.66534568e-01  6.70753615e-01  6.72173289e-01  6.78059980e-01
  6.83448185e-01  6.85628827e-01  6.88897725e-01  6.90764372e-01
  6.92652827e-01  6.94609523e-01  6.97152602e-01  6.99597599e-01
  7.07368842e-01  7.12847450e-01  7.13309957e-01  7.15845066e-01
  7.19501411e-01  7.22149004e-01  7.28752365e-01  7.33581930e-01
  7.34730808e-01  7.37832591e-01  7.42468208e-01  7.43394164e-01
  7.46232291e-01  7.47234700e-01  7.53838085e-01  7.54890293e-01
  7.58906599e-01  7.60294874e-01  7.61447966e-01  7.62011578e-01
  7.65182673e-01  7.65534728e-01  7.69684163e-01  7.72177094e-01
  7.74211085e-01  7.77151185e-01  7.78343889e-01  7.79517965e-01
  7.82027769e-01  7.85982932e-01  7.87328000e-01  7.90746051e-01
  7.93532249e-01  7.94666778e-01  7.97412811e-01  7.99752366e-01
  8.01018545e-01  8.01730941e-01  8.04213705e-01  8.06813415e-01
  8.08528083e-01  8.13196946e-01  8.16357096e-01  8.16812714e-01
  8.21011210e-01  8.24204209e-01  8.25507265e-01  8.27105958e-01
  8.31380760e-01  8.33059637e-01  8.37115835e-01  8.39043582e-01
  8.42375583e-01  8.43825899e-01  8.46266159e-01  8.46862868e-01
  8.49059320e-01  8.50244480e-01  8.53750407e-01  8.56611736e-01
  8.59167507e-01  8.60146864e-01  8.64685289e-01  8.65768526e-01
  8.68051657e-01  8.70602503e-01  8.71636150e-01  8.76534102e-01
  8.78080563e-01  8.82574812e-01  8.84437749e-01  8.86566779e-01
  8.87829513e-01  8.89401506e-01  8.93904337e-01  8.96027711e-01
  9.03083258e-01  9.04503644e-01  9.05067738e-01  9.09502245e-01
  9.11494991e-01  9.11727363e-01  9.13136526e-01  9.17921636e-01
  9.19569488e-01  9.21877630e-01  9.23715391e-01  9.25350157e-01
  9.27997235e-01  9.30478413e-01  9.31755605e-01  9.32767135e-01
  9.35624500e-01  9.38843724e-01  9.40649587e-01  9.42686093e-01
  9.44208436e-01  9.46428884e-01  9.48702615e-01  9.49541757e-01
  9.52373099e-01  9.54726768e-01  9.57040047e-01  9.60652459e-01
  9.61547496e-01  9.64147065e-01  9.66897496e-01  9.67817146e-01
  9.69554170e-01  9.70415575e-01  9.73322849e-01  9.75309485e-01
  9.75577524e-01  9.78766593e-01  9.82052093e-01  9.86499134e-01
  9.87957130e-01  9.89919642e-01  9.91065973e-01  9.92588301e-01
  9.94281270e-01  9.95612318e-01  9.98764468e-01  1.00047193e+00
  1.00319916e+00  1.00387676e+00  1.00602020e+00  1.00871143e+00
  1.01261507e+00  1.01629426e+00  1.01742834e+00  1.02274587e+00
  1.02320203e+00  1.02800166e+00  1.03293991e+00  1.03387868e+00
  1.03461067e+00  1.03697547e+00  1.03929726e+00  1.04271862e+00
  1.04405371e+00  1.04672118e+00  1.04723476e+00  1.04895317e+00
  1.05065260e+00  1.05552237e+00  1.05937699e+00  1.06093119e+00
  1.06306749e+00  1.06588794e+00  1.06952058e+00  1.07168980e+00
  1.07354405e+00  1.07628216e+00  1.07759411e+00  1.08163568e+00
  1.08365433e+00  1.08543671e+00  1.08704032e+00  1.09190802e+00
  1.09310040e+00  1.09535709e+00  1.09708159e+00  1.09869410e+00
  1.10077112e+00  1.10270742e+00  1.10405134e+00  1.10752485e+00
  1.11084311e+00  1.11497754e+00  1.11755605e+00  1.11892763e+00
  1.12027704e+00  1.12234670e+00  1.12449786e+00  1.12881492e+00
  1.13155961e+00  1.13320466e+00  1.13335837e+00  1.13843638e+00
  1.14118988e+00  1.14329309e+00  1.14896516e+00  1.14992860e+00
  1.15148310e+00  1.15330712e+00  1.15405884e+00  1.15692404e+00
  1.15893238e+00  1.16180066e+00  1.16352259e+00  1.16903006e+00
  1.17022987e+00  1.17213356e+00  1.17729623e+00  1.17892348e+00
  1.18193247e+00  1.18391545e+00  1.18752392e+00  1.18929479e+00
  1.19161228e+00  1.19186078e+00  1.19485569e+00  1.19702467e+00
  1.20055429e+00  1.20441440e+00  1.20515248e+00  1.20981255e+00
  1.21317362e+00  1.21669039e+00  1.21709196e+00  1.21986298e+00
  1.22557921e+00  1.22945268e+00  1.23459797e+00  1.23484749e+00
  1.23786006e+00  1.24221229e+00  1.24394084e+00  1.24622942e+00
  1.24833727e+00  1.25253137e+00  1.25352746e+00  1.25707133e+00
  1.26029492e+00  1.26234723e+00  1.26337467e+00  1.26762524e+00
  1.26941526e+00  1.27516519e+00  1.27783960e+00  1.28126426e+00
  1.28203735e+00  1.28435913e+00  1.28580948e+00  1.28839690e+00
  1.29083630e+00  1.29548274e+00  1.29905061e+00  1.30293936e+00
  1.30692000e+00  1.31059139e+00  1.31261867e+00  1.31786644e+00
  1.31975588e+00  1.32487658e+00  1.32661096e+00  1.32746978e+00
  1.33040090e+00  1.33643541e+00  1.34083078e+00  1.34220094e+00
  1.34511671e+00  1.34751183e+00  1.35330311e+00  1.35533849e+00
  1.35981813e+00  1.36153855e+00  1.36550070e+00  1.36815689e+00
  1.37058472e+00  1.37293170e+00  1.37961327e+00  1.38066675e+00
  1.38589726e+00  1.39003979e+00  1.39434857e+00  1.39694726e+00
  1.40104580e+00  1.40247504e+00  1.40706690e+00  1.40854302e+00
  1.40954516e+00  1.41752603e+00  1.42273725e+00  1.42546062e+00
  1.42744329e+00  1.43267358e+00  1.43645911e+00  1.43885778e+00
  1.44055633e+00  1.44383302e+00  1.44506941e+00  1.44705695e+00
  1.44972646e+00  1.45763942e+00  1.46547313e+00  1.46734233e+00
  1.47112004e+00  1.47572910e+00  1.48372661e+00  1.48550384e+00
  1.48681032e+00  1.48850060e+00  1.49612576e+00  1.49986033e+00
  1.50335323e+00  1.50473964e+00  1.50790684e+00  1.51727233e+00
  1.52221369e+00  1.52952209e+00  1.53038886e+00  1.53538072e+00
  1.53861220e+00  1.54404143e+00  1.55182273e+00  1.55348364e+00
  1.55950149e+00  1.56332796e+00  1.56940912e+00  1.57200596e+00
  1.57865401e+00  1.57888635e+00  1.58629456e+00  1.59325006e+00
  1.59441790e+00  1.60172754e+00  1.60292978e+00  1.61416773e+00
  1.61930338e+00  1.62374145e+00  1.63147988e+00  1.63456405e+00
  1.64650759e+00  1.65201190e+00  1.65943848e+00  1.66733023e+00
  1.67414680e+00  1.67859477e+00  1.68438721e+00  1.69735858e+00
  1.71484466e+00  1.73126313e+00  1.74203488e+00  1.74834309e+00
  1.76751565e+00  1.77842815e+00  1.79031876e+00  1.80822801e+00
  1.81107300e+00  1.83090475e+00  1.86954583e+00  1.91150114e+00
  1.92072824e+00  1.98751790e+00  2.00785250e+00  2.06589954e+00
  2.09259754e+00  2.16747100e+00  2.22566264e+00  2.25794393e+00
  2.28017929e+00  2.34371786e+00  2.40422684e+00  2.43569244e+00
  2.46322671e+00  2.48585225e+00  2.51597661e+00  2.53994938e+00
  2.58827681e+00  2.62830943e+00  2.67449072e+00  2.69121909e+00
  2.76708011e+00  2.78806345e+00  2.79754245e+00  2.83710793e+00
  2.85148875e+00  2.87124645e+00  2.95840824e+00  2.98087314e+00
  3.01346342e+00  3.06716445e+00  3.07646499e+00  3.09541536e+00
  3.13633575e+00  3.15090205e+00  3.16316097e+00  3.17046071e+00
  3.24481679e+00  3.25298187e+00  3.27167600e+00  3.28177381e+00
  3.29608145e+00  3.30914006e+00  3.32787078e+00  3.33662246e+00
  3.39094629e+00  3.39735771e+00  3.41973868e+00  3.42275789e+00
  3.43311014e+00  3.43735196e+00  3.46592714e+00  3.47757053e+00
  3.48932752e+00  3.50841232e+00  3.52731205e+00  3.53585023e+00
  3.54668290e+00  3.56423279e+00  3.57875386e+00  3.59201906e+00
  3.63523104e+00  3.64148287e+00  3.66053458e+00  3.67600903e+00
  3.69284358e+00  3.72896433e+00  3.74320278e+00  3.75807429e+00
  3.77708155e+00  3.79442820e+00  3.81245313e+00  3.82284161e+00
  3.82772579e+00  3.86368447e+00  3.86747582e+00  3.90077271e+00
  3.92355726e+00  3.93423822e+00  3.98673623e+00  4.00741125e+00
  4.01632059e+00  4.02750123e+00  4.04969728e+00  4.07990995e+00
  4.10221356e+00  4.12953608e+00  4.15800706e+00  4.22051096e+00
  4.23832216e+00  4.25488126e+00  4.27345293e+00  4.27707324e+00
  4.36147812e+00  4.37200459e+00  4.38865950e+00  4.41277175e+00
  4.47133857e+00  4.48600336e+00  4.48798398e+00  4.61690695e+00
  4.62525341e+00  4.65695499e+00  4.66452645e+00  4.78158708e+00
  4.81828506e+00  4.85517075e+00  4.92251808e+00  4.95221031e+00
  4.97895827e+00  5.02260459e+00  5.05411347e+00  5.11909921e+00
  5.19937798e+00  5.29666639e+00  5.30207806e+00  5.35610854e+00
  5.40325829e+00  5.48428114e+00  5.48832172e+00  5.49352864e+00
  5.61346118e+00  5.67858928e+00  5.68481951e+00  5.73504877e+00
  5.74718905e+00  5.77027209e+00  5.81841602e+00  5.91397058e+00
  5.96233393e+00  5.99254910e+00  6.05393067e+00  6.07353850e+00
  6.10702530e+00  6.15884551e+00  6.19393362e+00  6.23950673e+00
  6.25331794e+00  6.37393891e+00  6.41970873e+00  6.44733612e+00
  6.48420003e+00  6.59480633e+00  6.63297932e+00  6.75676439e+00
  6.83607790e+00  6.86495188e+00  6.92257516e+00  7.10718180e+00
  7.13215898e+00  7.15854409e+00  7.21011485e+00  7.22908655e+00
  7.26906482e+00  7.30563912e+00  7.37387894e+00  7.37917441e+00
  7.45076535e+00  7.55048203e+00  7.61180535e+00  7.66111580e+00
  7.77778210e+00  7.79839353e+00  8.06185462e+00  8.08916285e+00
  8.13870350e+00  8.50061511e+00  1.12728084e+01  1.31525457e+01
  1.33805821e+01  1.40841808e+01  1.58133295e+01  1.75616341e+01]
E1 = -2162.5397232176506  E_coul = 912.1465850624544
cycle= 2 E= -504.250965100809  delta_E= -0.0933  |g|= 0.701  |ddm|= 5.44
    CPU time for cycle= 2    594.34 sec, wall time     18.82 sec
diis-norm(errvec)=3.72633
diis-c [-1.85899936  0.47596757  0.52403243]
  HOMO = -0.117518633703586  LUMO = -0.0293501848062647
  mo_energy =
[-2.06457374e+01 -2.06394562e+01 -2.05931602e+01 -1.15016760e+01
 -1.13406827e+01 -1.13390573e+01 -2.46013330e+00 -2.45805175e+00
 -2.45720159e+00 -2.45511462e+00 -2.45482040e+00 -2.45434931e+00
 -2.45272908e+00 -2.45194242e+00 -2.45168033e+00 -2.45013600e+00
 -2.44969158e+00 -2.44929256e+00 -2.44902754e+00 -2.43907053e+00
 -2.43895806e+00 -2.43767291e+00 -2.43757559e+00 -2.43751614e+00
 -2.43439942e+00 -2.42865194e+00 -2.41170190e+00 -2.41158950e+00
 -1.65601418e+00 -1.50455278e+00 -1.48312570e+00 -1.15338025e+00
 -1.00350890e+00 -9.11098384e-01 -8.47361946e-01 -8.17988806e-01
 -7.65356579e-01 -7.32657331e-01 -7.01264889e-01 -6.91062667e-01
 -6.16720256e-01 -5.97986166e-01 -5.51071365e-01 -5.38340381e-01
 -5.16013246e-01 -3.17498577e-01 -2.72223683e-01 -2.65627373e-01
 -2.06566602e-01 -2.06291790e-01 -2.01212407e-01 -1.74030439e-01
 -1.57626039e-01 -1.53568296e-01 -1.29742052e-01 -1.17518634e-01
 -2.93501848e-02 -2.52743535e-02 -8.94936012e-03 -8.15714781e-03
  1.10665359e-03  8.08964628e-03  1.08250174e-02  1.26105752e-02
  1.39889267e-02  1.50968107e-02  1.83578950e-02  2.14045177e-02
  2.25190739e-02  2.91810912e-02  3.00453758e-02  3.64561720e-02
  3.73830374e-02  3.85535015e-02  3.90896320e-02  4.53072213e-02
  4.56160210e-02  4.89098458e-02  5.00128961e-02  5.16302650e-02
  5.45973785e-02  5.49380398e-02  5.78336579e-02  6.11008853e-02
  6.27540046e-02  6.40617245e-02  6.47747817e-02  6.58596622e-02
  6.63749808e-02  6.78083619e-02  6.83717198e-02  6.98086126e-02
  7.14203569e-02  7.41420447e-02  7.53059490e-02  7.62354388e-02
  7.74000677e-02  7.82755334e-02  7.98166843e-02  8.39566834e-02
  8.43220137e-02  8.56289743e-02  8.60150634e-02  9.05894368e-02
  9.15109508e-02  9.27886013e-02  9.31993317e-02  9.38617389e-02
  9.47119226e-02  9.62353908e-02  9.67410099e-02  9.95760652e-02
  1.01163799e-01  1.01589144e-01  1.04456516e-01  1.07471068e-01
  1.09756148e-01  1.11389439e-01  1.12950348e-01  1.14948948e-01
  1.16198482e-01  1.16639360e-01  1.17704818e-01  1.19248368e-01
  1.20437232e-01  1.21661670e-01  1.22240408e-01  1.24868936e-01
  1.28314744e-01  1.30412755e-01  1.31048239e-01  1.31478399e-01
  1.35210515e-01  1.37021150e-01  1.37957321e-01  1.39402204e-01
  1.40804968e-01  1.41669107e-01  1.43739170e-01  1.46564802e-01
  1.47357628e-01  1.48389852e-01  1.49492658e-01  1.53995298e-01
  1.55827937e-01  1.56738463e-01  1.58240512e-01  1.59225000e-01
  1.62094365e-01  1.65216252e-01  1.66997775e-01  1.69675155e-01
  1.70672000e-01  1.73895658e-01  1.74963012e-01  1.76940155e-01
  1.78233268e-01  1.79695298e-01  1.82341522e-01  1.84516362e-01
  1.86511087e-01  1.89961542e-01  1.90391856e-01  1.92114357e-01
  1.94992564e-01  1.97103938e-01  1.98902480e-01  1.99960740e-01
  2.03469221e-01  2.04706260e-01  2.07189134e-01  2.09000434e-01
  2.10220869e-01  2.11411940e-01  2.11757992e-01  2.14855634e-01
  2.17220348e-01  2.17776364e-01  2.20291284e-01  2.21713779e-01
  2.23815857e-01  2.26192106e-01  2.27031795e-01  2.27979782e-01
  2.28474681e-01  2.29693879e-01  2.33990395e-01  2.34700957e-01
  2.35623536e-01  2.37755332e-01  2.39024414e-01  2.42645632e-01
  2.44475583e-01  2.46181059e-01  2.47003160e-01  2.48501134e-01
  2.49481550e-01  2.51398297e-01  2.56580499e-01  2.57802528e-01
  2.61088294e-01  2.62731348e-01  2.65633407e-01  2.68490554e-01
  2.70677866e-01  2.71888910e-01  2.78661301e-01  2.81229518e-01
  2.82153655e-01  2.82920230e-01  2.87985958e-01  2.89400261e-01
  2.89688080e-01  2.91706007e-01  2.99883328e-01  3.01465342e-01
  3.03736328e-01  3.07450668e-01  3.08843418e-01  3.12530007e-01
  3.15988048e-01  3.18277244e-01  3.19297505e-01  3.23909817e-01
  3.25782699e-01  3.27070369e-01  3.28878237e-01  3.32734822e-01
  3.34318610e-01  3.35720950e-01  3.36299225e-01  3.39773013e-01
  3.40657765e-01  3.42605199e-01  3.44779511e-01  3.46631232e-01
  3.48323013e-01  3.48749907e-01  3.52276800e-01  3.54355819e-01
  3.55307453e-01  3.56927615e-01  3.58055829e-01  3.59856627e-01
  3.63217451e-01  3.64815938e-01  3.67841393e-01  3.72137679e-01
  3.73232330e-01  3.75526640e-01  3.83412907e-01  3.84021281e-01
  3.85680420e-01  3.87257946e-01  3.89216050e-01  3.92083766e-01
  3.95675840e-01  3.96870141e-01  3.99612082e-01  4.02157558e-01
  4.05954146e-01  4.06742202e-01  4.09158639e-01  4.12228453e-01
  4.13952542e-01  4.16998413e-01  4.18165073e-01  4.21544038e-01
  4.24864995e-01  4.25593645e-01  4.26865612e-01  4.27975355e-01
  4.29640666e-01  4.30187480e-01  4.31795830e-01  4.35227324e-01
  4.37471676e-01  4.38691722e-01  4.39511501e-01  4.41675665e-01
  4.43570614e-01  4.45547282e-01  4.47718172e-01  4.50290112e-01
  4.52438199e-01  4.55046686e-01  4.58248565e-01  4.61850492e-01
  4.62465763e-01  4.63107018e-01  4.63821631e-01  4.65855067e-01
  4.66415877e-01  4.67975771e-01  4.68988662e-01  4.72227441e-01
  4.73579178e-01  4.75014856e-01  4.77925321e-01  4.82281891e-01
  4.82703206e-01  4.84635460e-01  4.85144399e-01  4.86299893e-01
  4.89331619e-01  4.89987146e-01  4.93714476e-01  4.97610538e-01
  4.98504714e-01  4.99439249e-01  5.01662804e-01  5.03296537e-01
  5.04880399e-01  5.05580833e-01  5.07555945e-01  5.12729563e-01
  5.14005567e-01  5.14826227e-01  5.17152176e-01  5.19338888e-01
  5.21410653e-01  5.22530082e-01  5.23904937e-01  5.25482742e-01
  5.25703146e-01  5.27859462e-01  5.30580141e-01  5.31748047e-01
  5.35933226e-01  5.37189947e-01  5.37828366e-01  5.40794762e-01
  5.41812687e-01  5.42423016e-01  5.46647179e-01  5.46912587e-01
  5.51695783e-01  5.52388001e-01  5.54384382e-01  5.55962819e-01
  5.59008233e-01  5.59603755e-01  5.62003074e-01  5.66224825e-01
  5.67578870e-01  5.69998448e-01  5.75774666e-01  5.79078852e-01
  5.81887889e-01  5.85600044e-01  5.86263071e-01  5.89872894e-01
  5.92299629e-01  5.93778787e-01  5.96765683e-01  5.98465967e-01
  5.99531180e-01  6.01027433e-01  6.03373380e-01  6.05126666e-01
  6.10303110e-01  6.14910787e-01  6.18664201e-01  6.22363819e-01
  6.23690721e-01  6.27115195e-01  6.29965222e-01  6.34396259e-01
  6.37083492e-01  6.39605458e-01  6.41215817e-01  6.42380270e-01
  6.45323056e-01  6.46634344e-01  6.52620140e-01  6.54865239e-01
  6.55776637e-01  6.58256839e-01  6.63130141e-01  6.66387487e-01
  6.67245013e-01  6.71224144e-01  6.72526248e-01  6.77190826e-01
  6.77963915e-01  6.81213977e-01  6.83104107e-01  6.90373568e-01
  6.93615121e-01  6.95136854e-01  6.98580361e-01  7.00116069e-01
  7.03764673e-01  7.06636012e-01  7.09767079e-01  7.11608327e-01
  7.12725574e-01  7.15319876e-01  7.16980232e-01  7.18280171e-01
  7.21535769e-01  7.22277617e-01  7.25112976e-01  7.27686725e-01
  7.29474754e-01  7.31648582e-01  7.32953825e-01  7.38419864e-01
  7.40061432e-01  7.42254937e-01  7.44025038e-01  7.46501559e-01
  7.47510101e-01  7.52898022e-01  7.54903264e-01  7.55458248e-01
  7.56883295e-01  7.62790653e-01  7.64796021e-01  7.67156755e-01
  7.68710431e-01  7.70607870e-01  7.72546805e-01  7.74552204e-01
  7.78514624e-01  7.80500140e-01  7.83267404e-01  7.84248046e-01
  7.85606075e-01  7.89562810e-01  7.91377923e-01  7.94493577e-01
  7.96189540e-01  8.01132292e-01  8.02673848e-01  8.05050580e-01
  8.06846076e-01  8.09239044e-01  8.11141222e-01  8.14113734e-01
  8.15911429e-01  8.18272948e-01  8.22069326e-01  8.23178498e-01
  8.26505043e-01  8.27964010e-01  8.29637982e-01  8.31134447e-01
  8.35795677e-01  8.37245383e-01  8.40411064e-01  8.42309652e-01
  8.44985421e-01  8.45731560e-01  8.47542236e-01  8.50538455e-01
  8.54547183e-01  8.58125373e-01  8.61343826e-01  8.63425957e-01
  8.65602584e-01  8.66264162e-01  8.69633310e-01  8.70789544e-01
  8.74519062e-01  8.75846175e-01  8.78489981e-01  8.79487372e-01
  8.82582020e-01  8.87214641e-01  8.88123130e-01  8.91128126e-01
  8.92314043e-01  8.94221279e-01  8.96476219e-01  8.98191868e-01
  8.98594784e-01  9.01270849e-01  9.04626775e-01  9.05757547e-01
  9.08474971e-01  9.10738380e-01  9.13765892e-01  9.15342829e-01
  9.17242737e-01  9.19373194e-01  9.21779612e-01  9.22779386e-01
  9.25611154e-01  9.27101223e-01  9.28297815e-01  9.30526540e-01
  9.31009401e-01  9.32665707e-01  9.34533862e-01  9.38475799e-01
  9.40604850e-01  9.42159612e-01  9.46072464e-01  9.49589458e-01
  9.53119651e-01  9.55657938e-01  9.56210384e-01  9.58218513e-01
  9.60770045e-01  9.63303077e-01  9.67712944e-01  9.68465791e-01
  9.70191055e-01  9.70736437e-01  9.72450000e-01  9.77214344e-01
  9.81582782e-01  9.82656862e-01  9.83869760e-01  9.85232090e-01
  9.86714902e-01  9.89032546e-01  9.93433286e-01  9.93927452e-01
  9.96151122e-01  1.00084125e+00  1.00165264e+00  1.00512573e+00
  1.00713840e+00  1.00883917e+00  1.01330597e+00  1.01448303e+00
  1.01575258e+00  1.01842912e+00  1.02171760e+00  1.02536249e+00
  1.02646308e+00  1.02840921e+00  1.03123097e+00  1.03335290e+00
  1.03527067e+00  1.03679783e+00  1.04067232e+00  1.04356034e+00
  1.04561538e+00  1.04735606e+00  1.04855360e+00  1.05011543e+00
  1.05238730e+00  1.05361154e+00  1.05579822e+00  1.05736913e+00
  1.06125480e+00  1.06216912e+00  1.06307676e+00  1.06480199e+00
  1.06717962e+00  1.07181285e+00  1.07509379e+00  1.07879491e+00
  1.08008727e+00  1.08190953e+00  1.08446226e+00  1.08613951e+00
  1.08854889e+00  1.09084063e+00  1.09153578e+00  1.09542827e+00
  1.09732004e+00  1.10088827e+00  1.10498678e+00  1.10865384e+00
  1.11195128e+00  1.11285275e+00  1.11547394e+00  1.11811712e+00
  1.11965534e+00  1.12166617e+00  1.12288356e+00  1.12587344e+00
  1.12595725e+00  1.13134964e+00  1.13413469e+00  1.13728299e+00
  1.13954647e+00  1.14059326e+00  1.14409999e+00  1.14854186e+00
  1.15202603e+00  1.15609209e+00  1.15778066e+00  1.15934724e+00
  1.16154750e+00  1.16806529e+00  1.17040437e+00  1.17361348e+00
  1.17399839e+00  1.17606315e+00  1.17898830e+00  1.18227104e+00
  1.18374645e+00  1.19183540e+00  1.19512466e+00  1.19773542e+00
  1.20091298e+00  1.20226284e+00  1.20481616e+00  1.20555411e+00
  1.20849054e+00  1.20907450e+00  1.21325523e+00  1.21444962e+00
  1.21820882e+00  1.22103234e+00  1.22234521e+00  1.22698316e+00
  1.22857642e+00  1.23143382e+00  1.23236716e+00  1.23305170e+00
  1.23669242e+00  1.24122322e+00  1.24141135e+00  1.24478758e+00
  1.24767182e+00  1.25335649e+00  1.25639966e+00  1.25847661e+00
  1.25934349e+00  1.26259804e+00  1.26515246e+00  1.26761087e+00
  1.27257942e+00  1.27588642e+00  1.28009434e+00  1.28313478e+00
  1.28403274e+00  1.28434797e+00  1.28995066e+00  1.29285564e+00
  1.29473811e+00  1.29702841e+00  1.29966061e+00  1.30135520e+00
  1.30632513e+00  1.31187501e+00  1.31306879e+00  1.31429517e+00
  1.31602598e+00  1.31687456e+00  1.31881505e+00  1.32291440e+00
  1.32430742e+00  1.32931827e+00  1.33066471e+00  1.33350453e+00
  1.33527922e+00  1.34154061e+00  1.34514763e+00  1.35017713e+00
  1.35328161e+00  1.35942205e+00  1.36192735e+00  1.36532360e+00
  1.37192285e+00  1.37299817e+00  1.37481761e+00  1.37908928e+00
  1.38378076e+00  1.38933928e+00  1.38998224e+00  1.39133190e+00
  1.39897398e+00  1.40624582e+00  1.40900709e+00  1.41218501e+00
  1.41695178e+00  1.41974077e+00  1.42182808e+00  1.42528347e+00
  1.42690780e+00  1.43175268e+00  1.43750526e+00  1.44317832e+00
  1.44645484e+00  1.45004725e+00  1.45184684e+00  1.45530658e+00
  1.46292029e+00  1.46521611e+00  1.46699602e+00  1.46889876e+00
  1.47427681e+00  1.48026986e+00  1.48645698e+00  1.48698568e+00
  1.49346014e+00  1.49502798e+00  1.49914557e+00  1.50234044e+00
  1.51380129e+00  1.51916553e+00  1.52369711e+00  1.52687092e+00
  1.53256646e+00  1.53720420e+00  1.54772166e+00  1.54877480e+00
  1.55931920e+00  1.56483442e+00  1.57521619e+00  1.57993917e+00
  1.60268047e+00  1.61997429e+00  1.62460329e+00  1.63340269e+00
  1.64091635e+00  1.64273817e+00  1.66418813e+00  1.68078966e+00
  1.68891219e+00  1.69181611e+00  1.70127468e+00  1.70434299e+00
  1.76624807e+00  1.80471329e+00  1.87141983e+00  1.89681107e+00
  1.91468890e+00  1.95268677e+00  1.98484552e+00  2.00645917e+00
  2.07230815e+00  2.12127823e+00  2.16934869e+00  2.24997783e+00
  2.28866515e+00  2.34944221e+00  2.41137408e+00  2.43445458e+00
  2.48023202e+00  2.48187660e+00  2.51717647e+00  2.54512523e+00
  2.62038190e+00  2.66983234e+00  2.69378580e+00  2.71539889e+00
  2.78562775e+00  2.80880785e+00  2.82554840e+00  2.86740791e+00
  2.87068313e+00  2.89281445e+00  2.97557800e+00  3.00067056e+00
  3.05852677e+00  3.06337641e+00  3.10792732e+00  3.11854599e+00
  3.14519289e+00  3.17454493e+00  3.19632248e+00  3.22019731e+00
  3.28692853e+00  3.29204995e+00  3.29959506e+00  3.30801611e+00
  3.31734152e+00  3.32683789e+00  3.34134950e+00  3.37554668e+00
  3.38696647e+00  3.41223260e+00  3.41421696e+00  3.43191923e+00
  3.43955499e+00  3.45321300e+00  3.46392467e+00  3.46538683e+00
  3.49478393e+00  3.51526373e+00  3.52062749e+00  3.52529626e+00
  3.54183506e+00  3.56127235e+00  3.56594827e+00  3.58131207e+00
  3.60553350e+00  3.63023067e+00  3.66332810e+00  3.66839210e+00
  3.68166435e+00  3.69388131e+00  3.70284934e+00  3.72443778e+00
  3.75842989e+00  3.76601809e+00  3.77132113e+00  3.79891553e+00
  3.84964078e+00  3.85100558e+00  3.88986091e+00  3.91982162e+00
  3.92370935e+00  3.95165013e+00  3.96592708e+00  3.98195954e+00
  4.02108397e+00  4.02506343e+00  4.04394020e+00  4.05486175e+00
  4.07199410e+00  4.08034575e+00  4.09883404e+00  4.15245734e+00
  4.24416078e+00  4.27750337e+00  4.29154657e+00  4.29516878e+00
  4.38403606e+00  4.39305474e+00  4.42066138e+00  4.43463835e+00
  4.47307684e+00  4.50265112e+00  4.51291687e+00  4.51819624e+00
  4.64927204e+00  4.67623374e+00  4.67770889e+00  4.72689096e+00
  4.77988325e+00  4.82387223e+00  4.83577809e+00  4.94036022e+00
  5.01002302e+00  5.05068376e+00  5.08017344e+00  5.13765814e+00
  5.17689488e+00  5.32083354e+00  5.32756613e+00  5.39081515e+00
  5.43358224e+00  5.48896034e+00  5.49542352e+00  5.52576125e+00
  5.57936394e+00  5.60602756e+00  5.60654017e+00  5.68026646e+00
  5.74897088e+00  5.75812188e+00  5.84310856e+00  5.87796482e+00
  5.98360189e+00  5.99264382e+00  6.08545190e+00  6.11287416e+00
  6.11357338e+00  6.13787990e+00  6.20297488e+00  6.20738191e+00
  6.28001007e+00  6.38943832e+00  6.44437530e+00  6.46400792e+00
  6.48192207e+00  6.59291322e+00  6.64449381e+00  6.72185687e+00
  6.80375163e+00  6.85811071e+00  6.90253894e+00  6.98023918e+00
  7.00728066e+00  7.04205238e+00  7.10783313e+00  7.20967473e+00
  7.23534689e+00  7.30481537e+00  7.35519541e+00  7.36524676e+00
  7.43491688e+00  7.47249621e+00  7.53263827e+00  7.53511267e+00
  7.75664219e+00  7.77207049e+00  7.94145587e+00  8.01012346e+00
  8.10735218e+00  8.45137039e+00  1.12612200e+01  1.31476124e+01
  1.33828517e+01  1.41047633e+01  1.58948904e+01  1.75280287e+01]
E1 = -2169.9294495512745  E_coul = 919.3642832504586
cycle= 3 E= -504.422993246429  delta_E= -0.172  |g|= 0.123  |ddm|= 3.48
    CPU time for cycle= 3    592.40 sec, wall time     18.71 sec
diis-norm(errvec)=0.834347
diis-c [-0.38229698  0.02244989  0.1455431   0.83200701]
  HOMO = -0.106813492183916  LUMO = -0.0160123494891003
  mo_energy =
[-2.06566189e+01 -2.06531541e+01 -2.06025396e+01 -1.14174117e+01
 -1.12919603e+01 -1.12905429e+01 -2.45876575e+00 -2.44941539e+00
 -2.44887950e+00 -2.44524091e+00 -2.44435089e+00 -2.44366115e+00
 -2.44298799e+00 -2.43931190e+00 -2.43827241e+00 -2.43458257e+00
 -2.43425599e+00 -2.43298147e+00 -2.42490641e+00 -2.42440245e+00
 -2.41872275e+00 -2.41705685e+00 -2.40863347e+00 -2.40758899e+00
 -2.40576344e+00 -2.39183998e+00 -2.38431530e+00 -2.38387995e+00
 -1.62999845e+00 -1.48309511e+00 -1.46548427e+00 -1.12310971e+00
 -9.79482999e-01 -8.93359294e-01 -8.26067101e-01 -8.04010241e-01
 -7.45009622e-01 -7.18763834e-01 -6.80108735e-01 -6.74215544e-01
 -6.08669130e-01 -5.77380482e-01 -5.41122816e-01 -5.26202109e-01
 -5.00672016e-01 -2.94270894e-01 -2.57041883e-01 -2.48880383e-01
 -1.94174863e-01 -1.93355043e-01 -1.88858325e-01 -1.58378915e-01
 -1.49269981e-01 -1.40990864e-01 -1.18169260e-01 -1.06813492e-01
 -1.60123495e-02 -1.22066745e-02  1.54667541e-04  3.27241794e-03
  1.01982545e-02  1.57470641e-02  1.59354118e-02  1.92913174e-02
  1.95553558e-02  2.08776906e-02  2.41087562e-02  2.69489877e-02
  2.88691727e-02  3.33363672e-02  3.51908737e-02  4.03324860e-02
  4.22539330e-02  4.38334452e-02  4.50920691e-02  4.84757143e-02
  4.94175630e-02  5.19371018e-02  5.43859245e-02  5.53880109e-02
  5.78216588e-02  5.86032746e-02  6.17193102e-02  6.43280883e-02
  6.64750577e-02  6.77688098e-02  6.86146366e-02  6.90703199e-02
  6.99845933e-02  7.22327923e-02  7.29357143e-02  7.40870020e-02
  7.56726180e-02  7.79939235e-02  7.82209281e-02  7.88989109e-02
  8.15090015e-02  8.23649574e-02  8.43627954e-02  8.68862916e-02
  8.69531096e-02  8.84120872e-02  8.85838724e-02  9.35400111e-02
  9.43144794e-02  9.56728041e-02  9.63024469e-02  9.74391198e-02
  9.83462057e-02  1.01381451e-01  1.01767112e-01  1.04673995e-01
  1.04937481e-01  1.05503350e-01  1.08714301e-01  1.10007550e-01
  1.12254638e-01  1.14974468e-01  1.15796686e-01  1.18240368e-01
  1.19107420e-01  1.20359780e-01  1.21407251e-01  1.21970136e-01
  1.23764709e-01  1.26510786e-01  1.27725035e-01  1.28824730e-01
  1.29971489e-01  1.32960925e-01  1.33334745e-01  1.35960691e-01
  1.39211660e-01  1.42198289e-01  1.42580455e-01  1.45027219e-01
  1.46846719e-01  1.47783676e-01  1.48986314e-01  1.50641000e-01
  1.52522565e-01  1.53845414e-01  1.55694127e-01  1.60485031e-01
  1.61136262e-01  1.62413287e-01  1.64952072e-01  1.67269575e-01
  1.69196307e-01  1.71751512e-01  1.74668925e-01  1.76125119e-01
  1.77711944e-01  1.81060844e-01  1.81489182e-01  1.83318347e-01
  1.84523650e-01  1.86221559e-01  1.87316070e-01  1.93762113e-01
  1.95198554e-01  1.95850562e-01  1.96724624e-01  1.97870205e-01
  2.01570088e-01  2.03120783e-01  2.05968249e-01  2.09322200e-01
  2.11538322e-01  2.13811871e-01  2.15002958e-01  2.16295272e-01
  2.17535715e-01  2.19297869e-01  2.20758263e-01  2.22466571e-01
  2.23310663e-01  2.24318620e-01  2.25535362e-01  2.27558653e-01
  2.31593795e-01  2.32151757e-01  2.32580785e-01  2.34434860e-01
  2.36711740e-01  2.37457795e-01  2.38897765e-01  2.41368955e-01
  2.43998788e-01  2.46200674e-01  2.47166799e-01  2.50954453e-01
  2.51745377e-01  2.54819869e-01  2.55244596e-01  2.56743126e-01
  2.57400197e-01  2.61931900e-01  2.63735264e-01  2.65979666e-01
  2.71281845e-01  2.73062553e-01  2.76140652e-01  2.77807882e-01
  2.80224578e-01  2.81205035e-01  2.88241435e-01  2.90848187e-01
  2.91766374e-01  2.92721436e-01  2.94064046e-01  2.96575142e-01
  2.96991799e-01  3.01639742e-01  3.09064077e-01  3.11179768e-01
  3.13944360e-01  3.16170840e-01  3.16999609e-01  3.19790036e-01
  3.25707811e-01  3.27894069e-01  3.28950746e-01  3.32921669e-01
  3.35451444e-01  3.36211679e-01  3.39327982e-01  3.40549089e-01
  3.42501121e-01  3.43263167e-01  3.47061524e-01  3.49829688e-01
  3.50698968e-01  3.53455958e-01  3.56614357e-01  3.57909129e-01
  3.59331945e-01  3.61109232e-01  3.62146723e-01  3.64192661e-01
  3.64538901e-01  3.67175123e-01  3.68652238e-01  3.70583802e-01
  3.71743602e-01  3.73595400e-01  3.76033111e-01  3.79555299e-01
  3.80470256e-01  3.86804344e-01  3.91196272e-01  3.93027727e-01
  3.94463214e-01  3.97307272e-01  3.99916306e-01  4.02427052e-01
  4.04590336e-01  4.06255437e-01  4.10174469e-01  4.11447549e-01
  4.14190451e-01  4.16171538e-01  4.16533257e-01  4.20074734e-01
  4.21363167e-01  4.25903385e-01  4.26460679e-01  4.32852769e-01
  4.33694817e-01  4.36174371e-01  4.36486656e-01  4.37221526e-01
  4.40471625e-01  4.41467646e-01  4.42923029e-01  4.43762027e-01
  4.47222364e-01  4.49546718e-01  4.50850421e-01  4.51235383e-01
  4.53679308e-01  4.55240292e-01  4.57054168e-01  4.59381148e-01
  4.63023445e-01  4.65115056e-01  4.68896190e-01  4.69440662e-01
  4.71468610e-01  4.72008594e-01  4.74185143e-01  4.74405541e-01
  4.75921051e-01  4.77886973e-01  4.80089146e-01  4.81765328e-01
  4.82383794e-01  4.84729711e-01  4.88531507e-01  4.90365963e-01
  4.91584630e-01  4.93092608e-01  4.95462007e-01  4.98047354e-01
  5.00235694e-01  5.00738700e-01  5.03996195e-01  5.08683394e-01
  5.09287240e-01  5.09563533e-01  5.10699528e-01  5.13149669e-01
  5.13488765e-01  5.15131440e-01  5.17779525e-01  5.22179632e-01
  5.24647905e-01  5.25935974e-01  5.29900993e-01  5.30441934e-01
  5.31712125e-01  5.33032127e-01  5.33962052e-01  5.34478616e-01
  5.37075072e-01  5.37810744e-01  5.42735838e-01  5.44156454e-01
  5.45249155e-01  5.46463813e-01  5.50944693e-01  5.53119796e-01
  5.53375999e-01  5.55537287e-01  5.57637173e-01  5.60099931e-01
  5.60597747e-01  5.63514741e-01  5.66799977e-01  5.67784031e-01
  5.69163469e-01  5.71560773e-01  5.73635315e-01  5.76805459e-01
  5.79616136e-01  5.83226565e-01  5.85398856e-01  5.91928231e-01
  5.92875466e-01  5.95684495e-01  5.98508441e-01  6.02230271e-01
  6.03488065e-01  6.04787714e-01  6.07936787e-01  6.09644211e-01
  6.11190564e-01  6.12831380e-01  6.14617381e-01  6.16715228e-01
  6.21276322e-01  6.25313440e-01  6.28666621e-01  6.34628053e-01
  6.35992018e-01  6.39446612e-01  6.43700478e-01  6.45737095e-01
  6.50208492e-01  6.51156150e-01  6.52257207e-01  6.54484010e-01
  6.57821141e-01  6.61043311e-01  6.65573286e-01  6.67750193e-01
  6.68396102e-01  6.70886695e-01  6.73859859e-01  6.78802015e-01
  6.81598612e-01  6.85403860e-01  6.87241931e-01  6.91937219e-01
  6.95116658e-01  6.96523543e-01  6.99991544e-01  7.06724047e-01
  7.07936725e-01  7.10246329e-01  7.12638444e-01  7.16213016e-01
  7.18458174e-01  7.22498199e-01  7.23530954e-01  7.24815748e-01
  7.26479464e-01  7.28560511e-01  7.31034973e-01  7.32687442e-01
  7.35404607e-01  7.37409248e-01  7.40296814e-01  7.42304216e-01
  7.42518723e-01  7.46374210e-01  7.48324011e-01  7.51865647e-01
  7.52754168e-01  7.57242103e-01  7.58567299e-01  7.60619201e-01
  7.62494099e-01  7.67320913e-01  7.69196941e-01  7.69857284e-01
  7.71870117e-01  7.76003206e-01  7.78278421e-01  7.79653744e-01
  7.81215606e-01  7.83655197e-01  7.85446713e-01  7.89137274e-01
  7.91620760e-01  7.93420477e-01  7.95855583e-01  7.97156736e-01
  7.98257284e-01  8.03858393e-01  8.05572937e-01  8.08087649e-01
  8.09826536e-01  8.12308590e-01  8.14328750e-01  8.15982911e-01
  8.18725148e-01  8.22046256e-01  8.22308238e-01  8.26328994e-01
  8.27659999e-01  8.32260137e-01  8.35521644e-01  8.36941211e-01
  8.38419995e-01  8.38926925e-01  8.42970543e-01  8.43463969e-01
  8.48067185e-01  8.51385196e-01  8.52459352e-01  8.55228722e-01
  8.57273078e-01  8.58407327e-01  8.59650663e-01  8.62380306e-01
  8.67725446e-01  8.70095291e-01  8.74624192e-01  8.77034544e-01
  8.77721099e-01  8.79252515e-01  8.81685598e-01  8.83785991e-01
  8.86025705e-01  8.88968833e-01  8.91584716e-01  8.92162634e-01
  8.96353545e-01  9.00002549e-01  9.00331826e-01  9.01906369e-01
  9.04942852e-01  9.06692613e-01  9.09257979e-01  9.10404339e-01
  9.11892455e-01  9.14240888e-01  9.15391551e-01  9.19442489e-01
[...]
  1.25342218e+00  1.25748797e+00  1.25838858e+00  1.26233216e+00
  1.26394281e+00  1.27050684e+00  1.27303077e+00  1.27525228e+00
  1.27667493e+00  1.28010624e+00  1.28310675e+00  1.28492358e+00
  1.28881327e+00  1.29106956e+00  1.29588788e+00  1.29999640e+00
  1.30136345e+00  1.30237701e+00  1.30665145e+00  1.31071371e+00
  1.31146605e+00  1.31383648e+00  1.31747018e+00  1.31918209e+00
  1.32330395e+00  1.32979353e+00  1.33108563e+00  1.33250893e+00
  1.33530120e+00  1.33685625e+00  1.33751241e+00  1.34153705e+00
  1.34219679e+00  1.34745921e+00  1.35004855e+00  1.35245222e+00
  1.35406106e+00  1.36028105e+00  1.36399893e+00  1.36957811e+00
  1.37325733e+00  1.37756580e+00  1.38044936e+00  1.38350494e+00
  1.38936858e+00  1.39106260e+00  1.39425887e+00  1.39811522e+00
  1.40292897e+00  1.40744016e+00  1.40920054e+00  1.41101986e+00
  1.41919525e+00  1.42467604e+00  1.42793120e+00  1.43249709e+00
  1.43566136e+00  1.43873395e+00  1.44067009e+00  1.44439541e+00
  1.44639738e+00  1.45010379e+00  1.45520169e+00  1.46097823e+00
  1.46576240e+00  1.46782960e+00  1.47237919e+00  1.47335242e+00
  1.48146536e+00  1.48512902e+00  1.48686731e+00  1.48913535e+00
  1.49653253e+00  1.50127393e+00  1.50633192e+00  1.50773221e+00
  1.51342087e+00  1.51800218e+00  1.52196143e+00  1.52398561e+00
  1.53248050e+00  1.53952782e+00  1.54306361e+00  1.54582608e+00
  1.55256555e+00  1.55804525e+00  1.57029234e+00  1.57061833e+00
  1.58261324e+00  1.58526509e+00  1.59285058e+00  1.59738376e+00
  1.62715742e+00  1.63796148e+00  1.64212003e+00  1.65358352e+00
  1.66126108e+00  1.66700340e+00  1.68445872e+00  1.69809019e+00
  1.70706519e+00  1.71442685e+00  1.72225775e+00  1.72316293e+00
  1.78367288e+00  1.82332317e+00  1.88637831e+00  1.91388276e+00
  1.93247138e+00  1.96698232e+00  2.00122165e+00  2.02235169e+00
  2.08756495e+00  2.13605495e+00  2.18349087e+00  2.26653951e+00
  2.30310399e+00  2.36343462e+00  2.42782095e+00  2.45203849e+00
  2.49508164e+00  2.50288333e+00  2.53428663e+00  2.56402951e+00
  2.63864882e+00  2.69199896e+00  2.71422667e+00  2.73657447e+00
  2.80512417e+00  2.82859891e+00  2.84775689e+00  2.88821363e+00
  2.89106527e+00  2.91063509e+00  2.99427721e+00  3.02474054e+00
  3.08031251e+00  3.08184640e+00  3.13084366e+00  3.14004690e+00
  3.16568401e+00  3.19591288e+00  3.21893999e+00  3.24279567e+00
  3.30598346e+00  3.31194630e+00  3.31471542e+00  3.32102279e+00
  3.33935692e+00  3.35103669e+00  3.36367267e+00  3.39833882e+00
  3.40115935e+00  3.42518918e+00  3.43382773e+00  3.44655192e+00
  3.45672392e+00  3.47026797e+00  3.48540824e+00  3.48679414e+00
  3.51049231e+00  3.52708748e+00  3.53796274e+00  3.54343902e+00
  3.55732999e+00  3.57403745e+00  3.58432307e+00  3.59728696e+00
  3.62633277e+00  3.65017598e+00  3.68444079e+00  3.68638902e+00
  3.70380695e+00  3.71560496e+00  3.72528560e+00  3.74222895e+00
  3.78373110e+00  3.78812970e+00  3.79220874e+00  3.82084370e+00
  3.87094467e+00  3.87169794e+00  3.91084600e+00  3.94216605e+00
  3.94657917e+00  3.97177933e+00  3.98766581e+00  4.00686875e+00
  4.04268131e+00  4.04734028e+00  4.06562134e+00  4.07511260e+00
  4.09320325e+00  4.10788502e+00  4.12474710e+00  4.17442122e+00
  4.26423539e+00  4.29790103e+00  4.30893722e+00  4.31563911e+00
  4.40429892e+00  4.41334565e+00  4.44168521e+00  4.45584533e+00
  4.49193449e+00  4.52277290e+00  4.53251721e+00  4.53920454e+00
  4.67035753e+00  4.69608348e+00  4.70138664e+00  4.74364715e+00
  4.79475335e+00  4.83918341e+00  4.85261360e+00  4.96103983e+00
  5.03057881e+00  5.06885067e+00  5.10027362e+00  5.15786605e+00
  5.19473755e+00  5.34025276e+00  5.34716916e+00  5.41305401e+00
  5.45464492e+00  5.50715695e+00  5.51224602e+00  5.54760157e+00
  5.59386596e+00  5.62034637e+00  5.62803001e+00  5.70091733e+00
  5.76981218e+00  5.77671393e+00  5.86355513e+00  5.89487647e+00
  6.00058985e+00  6.01256966e+00  6.10603889e+00  6.13094156e+00
  6.13631241e+00  6.15827909e+00  6.21974139e+00  6.22531658e+00
  6.30086212e+00  6.40671706e+00  6.46336155e+00  6.48232390e+00
  6.49769947e+00  6.60957799e+00  6.66319900e+00  6.73895119e+00
  6.81992002e+00  6.87484847e+00  6.91883268e+00  6.99394175e+00
  7.02067389e+00  7.06070301e+00  7.12888223e+00  7.22257297e+00
  7.24756751e+00  7.31849185e+00  7.36428600e+00  7.37406445e+00
  7.44543364e+00  7.48427150e+00  7.54389102e+00  7.54710604e+00
  7.76916231e+00  7.78137459e+00  7.95768603e+00  8.02135932e+00
  8.11768373e+00  8.47163619e+00  1.12778390e+01  1.31674316e+01
  1.33932051e+01  1.41279141e+01  1.59222385e+01  1.75584781e+01]
E1 = -2168.8175072117183  E_coul = 918.2380302759012
cycle= 49 E= -504.43730388143  delta_E= -3.08e-08  |g|= 4.11e-05  |ddm|= 0.00136
    CPU time for cycle= 49    565.95 sec, wall time     17.88 sec
diis-norm(errvec)=0.000349681
diis-c [-1.12755551e-07  8.39574741e-01 -9.87231388e-02  4.17416817e-02
  1.18735947e-01  1.59099110e-01 -3.69698329e-01 -3.50927666e-01
  6.60197655e-01]
  HOMO = -0.110498206233158  LUMO = -0.0130787471923205
  mo_energy =
[-2.06442406e+01 -2.06441459e+01 -2.05778023e+01 -1.14471331e+01
 -1.13078416e+01 -1.13067461e+01 -2.44893997e+00 -2.44618961e+00
 -2.44418042e+00 -2.44221235e+00 -2.44102089e+00 -2.44038564e+00
 -2.44025450e+00 -2.43135871e+00 -2.43087057e+00 -2.43053605e+00
 -2.43006478e+00 -2.42847755e+00 -2.42779104e+00 -2.42501735e+00
 -2.42251180e+00 -2.41816230e+00 -2.41773452e+00 -2.41339578e+00
 -2.41055130e+00 -2.39799523e+00 -2.38728034e+00 -2.38659070e+00
 -1.63546989e+00 -1.48385638e+00 -1.46845739e+00 -1.12874648e+00
 -9.83073643e-01 -8.95598650e-01 -8.29835112e-01 -8.03799660e-01
 -7.47578275e-01 -7.20131673e-01 -6.82575459e-01 -6.77552572e-01
 -6.09804652e-01 -5.83825927e-01 -5.39953852e-01 -5.24717454e-01
 -5.03939272e-01 -2.94070541e-01 -2.55749727e-01 -2.47951018e-01
 -1.95310568e-01 -1.93171246e-01 -1.89600041e-01 -1.59184027e-01
 -1.52578668e-01 -1.44690946e-01 -1.19641157e-01 -1.10498206e-01
 -1.30787472e-02 -9.34521437e-03  2.92136808e-03  5.12457229e-03
  1.30780988e-02  1.66474822e-02  1.77769051e-02  2.01629738e-02
  2.06641606e-02  2.27694291e-02  2.39556275e-02  2.81624367e-02
  2.93205264e-02  3.30446636e-02  3.46049659e-02  4.08910220e-02
  4.32800797e-02  4.44093845e-02  4.54029637e-02  4.86887861e-02
  4.96872486e-02  5.21382302e-02  5.50492284e-02  5.54667485e-02
  5.82685419e-02  5.93564747e-02  6.24049354e-02  6.50825048e-02
  6.73702581e-02  6.79804633e-02  6.90630257e-02  6.93089130e-02
  7.03335732e-02  7.25739590e-02  7.34880578e-02  7.50686975e-02
  7.56269375e-02  7.82703641e-02  7.86655810e-02  7.93993265e-02
  8.16704293e-02  8.27047198e-02  8.45121276e-02  8.69576670e-02
  8.70721768e-02  8.83912217e-02  8.90717191e-02  9.38511776e-02
  9.39883632e-02  9.60902808e-02  9.67349860e-02  9.75830032e-02
  9.90545910e-02  1.01647830e-01  1.02109293e-01  1.05006261e-01
  1.05507986e-01  1.05610571e-01  1.09386957e-01  1.10293567e-01
  1.12789712e-01  1.15065687e-01  1.15880024e-01  1.18924939e-01
  1.19379301e-01  1.20362598e-01  1.21114763e-01  1.22024353e-01
  1.23790806e-01  1.26459192e-01  1.26959745e-01  1.29168817e-01
  1.30140992e-01  1.33244656e-01  1.33640784e-01  1.36644717e-01
  1.39641685e-01  1.41810436e-01  1.42083648e-01  1.44662868e-01
  1.46445622e-01  1.48209930e-01  1.48848110e-01  1.50954381e-01
  1.51886014e-01  1.54660751e-01  1.55777888e-01  1.60662207e-01
  1.61753001e-01  1.62119939e-01  1.64479565e-01  1.67123592e-01
  1.69655695e-01  1.72409136e-01  1.74894321e-01  1.76507213e-01
  1.78255073e-01  1.81053519e-01  1.81553922e-01  1.84258452e-01
  1.84845203e-01  1.87461673e-01  1.87841888e-01  1.94146309e-01
  1.94909809e-01  1.96472097e-01  1.98309015e-01  1.99207632e-01
  2.02318852e-01  2.04265075e-01  2.06526324e-01  2.08974577e-01
  2.11295485e-01  2.13937077e-01  2.14818271e-01  2.16390980e-01
  2.17986038e-01  2.19722177e-01  2.20413432e-01  2.22809087e-01
  2.23746098e-01  2.25367230e-01  2.26254302e-01  2.28733456e-01
  2.32265002e-01  2.32927403e-01  2.33561655e-01  2.35059458e-01
  2.36685533e-01  2.36936236e-01  2.40256216e-01  2.42229621e-01
  2.43404635e-01  2.46269690e-01  2.47305395e-01  2.51232965e-01
  2.51952532e-01  2.54809144e-01  2.55268678e-01  2.57501501e-01
  2.58233659e-01  2.61599356e-01  2.63867676e-01  2.65989763e-01
  2.71493043e-01  2.73124608e-01  2.76344667e-01  2.78320111e-01
  2.80173072e-01  2.81486138e-01  2.88502831e-01  2.90772134e-01
  2.91541370e-01  2.92516600e-01  2.95511201e-01  2.96926388e-01
  2.97564801e-01  3.01573535e-01  3.09790975e-01  3.11017382e-01
  3.13929850e-01  3.16682125e-01  3.17683440e-01  3.20727197e-01
  3.26125136e-01  3.28255601e-01  3.29027499e-01  3.33162940e-01
  3.35353654e-01  3.36573609e-01  3.39085669e-01  3.40949289e-01
  3.43068209e-01  3.44304512e-01  3.46964373e-01  3.49095893e-01
  3.51038351e-01  3.53257609e-01  3.56766543e-01  3.57898871e-01
  3.59766966e-01  3.60797548e-01  3.62323242e-01  3.64248398e-01
  3.64781493e-01  3.67114892e-01  3.68963397e-01  3.70677586e-01
  3.71974456e-01  3.73576935e-01  3.76668357e-01  3.79974036e-01
  3.81238537e-01  3.86145064e-01  3.91948587e-01  3.94003287e-01
  3.95064552e-01  3.97931719e-01  3.99646965e-01  4.03045101e-01
  4.05045389e-01  4.07603817e-01  4.09174828e-01  4.12207580e-01
  4.15405406e-01  4.16423314e-01  4.17234334e-01  4.20292325e-01
  4.21962632e-01  4.26806500e-01  4.27393756e-01  4.33424107e-01
  4.34397417e-01  4.36287962e-01  4.36959745e-01  4.37436962e-01
  4.40699430e-01  4.41532097e-01  4.42968554e-01  4.44350007e-01
  4.47851103e-01  4.49335358e-01  4.50605104e-01  4.52164994e-01
  4.53755077e-01  4.55503229e-01  4.57382490e-01  4.60322278e-01
  4.63327063e-01  4.65216121e-01  4.68851130e-01  4.70176191e-01
  4.72294445e-01  4.72647906e-01  4.74754323e-01  4.75235644e-01
  4.75769856e-01  4.78335089e-01  4.80477601e-01  4.82375871e-01
  4.83195946e-01  4.84829316e-01  4.89287299e-01  4.90796706e-01
  4.92469045e-01  4.93944549e-01  4.95150434e-01  4.98368951e-01
  4.99944347e-01  5.00372278e-01  5.04147982e-01  5.08849942e-01
  5.09414793e-01  5.09570885e-01  5.11301459e-01  5.13650352e-01
  5.13978855e-01  5.15656670e-01  5.18068347e-01  5.22964362e-01
  5.25075005e-01  5.26025472e-01  5.29540743e-01  5.30863008e-01
  5.31847928e-01  5.33076743e-01  5.34420081e-01  5.35135024e-01
  5.37118586e-01  5.38252074e-01  5.42369522e-01  5.44331723e-01
  5.45917353e-01  5.47348549e-01  5.50338304e-01  5.52977486e-01
  5.53345505e-01  5.55031474e-01  5.57633090e-01  5.59719339e-01
  5.60983240e-01  5.63536197e-01  5.66595740e-01  5.68082590e-01
  5.69051568e-01  5.72083662e-01  5.72669131e-01  5.76641454e-01
  5.79119302e-01  5.83384404e-01  5.85836792e-01  5.91236169e-01
  5.93579389e-01  5.96298232e-01  5.97962273e-01  6.02228459e-01
  6.04176236e-01  6.04812868e-01  6.08381094e-01  6.10365818e-01
  6.11574970e-01  6.12831805e-01  6.14473974e-01  6.17288254e-01
  6.21966362e-01  6.26008870e-01  6.29739328e-01  6.34825799e-01
  6.35851382e-01  6.40212254e-01  6.43073595e-01  6.46295716e-01
  6.50707826e-01  6.50799571e-01  6.52829027e-01  6.54272739e-01
  6.57666257e-01  6.60491457e-01  6.65275064e-01  6.67743278e-01
  6.68654448e-01  6.70706483e-01  6.74383400e-01  6.78581371e-01
  6.81213198e-01  6.85266277e-01  6.86454616e-01  6.91297073e-01
  6.94218582e-01  6.96422593e-01  6.98818077e-01  7.06216878e-01
  7.08411002e-01  7.09944074e-01  7.12769692e-01  7.16235848e-01
  7.18583820e-01  7.23153435e-01  7.23616326e-01  7.25521460e-01
  7.26663091e-01  7.29901801e-01  7.31769644e-01  7.32543158e-01
  7.35311763e-01  7.37274181e-01  7.40057950e-01  7.42025823e-01
  7.43250259e-01  7.46218854e-01  7.48608228e-01  7.52091791e-01
  7.53688874e-01  7.58111028e-01  7.59740289e-01  7.60890534e-01
  7.62173648e-01  7.68472152e-01  7.69700469e-01  7.69925437e-01
  7.71792922e-01  7.76646663e-01  7.79549426e-01  7.80585408e-01
  7.81820663e-01  7.84840399e-01  7.85856119e-01  7.89185663e-01
  7.92222147e-01  7.94467473e-01  7.96856077e-01  7.98006397e-01
  7.99493098e-01  8.03886307e-01  8.06239888e-01  8.08715915e-01
  8.10147750e-01  8.13531792e-01  8.16265120e-01  8.17805123e-01
  8.19789019e-01  8.23467342e-01  8.23836861e-01  8.27902956e-01
  8.28884306e-01  8.32263026e-01  8.36465723e-01  8.37592174e-01
  8.40214227e-01  8.40931443e-01  8.43068081e-01  8.44612750e-01
  8.49134010e-01  8.51606480e-01  8.53549851e-01  8.55056285e-01
  8.58127457e-01  8.59011625e-01  8.61155789e-01  8.63930488e-01
  8.68519551e-01  8.71265958e-01  8.75300922e-01  8.77422761e-01
  8.78154783e-01  8.79931996e-01  8.82248855e-01  8.84362049e-01
  8.87879959e-01  8.89787935e-01  8.91923520e-01  8.93067311e-01
  8.96688908e-01  9.01224917e-01  9.01819475e-01  9.03578473e-01
  9.06252004e-01  9.08138219e-01  9.09752531e-01  9.11854177e-01
  9.12388246e-01  9.14327467e-01  9.16706706e-01  9.20514054e-01
  9.22255647e-01  9.23443485e-01  9.25788182e-01  9.29173834e-01
  9.31665192e-01  9.33110723e-01  9.34833819e-01  9.36765437e-01
  9.39051107e-01  9.41134740e-01  9.41799048e-01  9.42316967e-01
  9.44367475e-01  9.46932751e-01  9.48553533e-01  9.50763784e-01
  9.54504168e-01  9.55396941e-01  9.59003112e-01  9.63164852e-01
  9.66657716e-01  9.67745499e-01  9.69669899e-01  9.71389129e-01
  9.72679733e-01  9.76628444e-01  9.80517364e-01  9.81717038e-01
  9.82633722e-01  9.84565569e-01  9.87282336e-01  9.90820645e-01
  9.94725721e-01  9.95215800e-01  9.98134823e-01  9.99579757e-01
  1.00008370e+00  1.00354476e+00  1.00694839e+00  1.00888788e+00
  1.01047271e+00  1.01457122e+00  1.01611141e+00  1.02018126e+00
  1.02090046e+00  1.02323883e+00  1.02666991e+00  1.02835117e+00
  1.03001818e+00  1.03170405e+00  1.03513768e+00  1.03913235e+00
  1.04036614e+00  1.04260654e+00  1.04486134e+00  1.04802231e+00
  1.04869657e+00  1.05214968e+00  1.05469476e+00  1.05694634e+00
  1.05878623e+00  1.06064713e+00  1.06247369e+00  1.06426006e+00
  1.06680084e+00  1.06781039e+00  1.06963722e+00  1.07166660e+00
  1.07379125e+00  1.07599463e+00  1.07738423e+00  1.07907340e+00
  1.08150629e+00  1.08641410e+00  1.09009976e+00  1.09304871e+00
  1.09527255e+00  1.09569507e+00  1.09872117e+00  1.10070593e+00
  1.10295769e+00  1.10492368e+00  1.10634859e+00  1.10984197e+00
  1.11204362e+00  1.11559926e+00  1.11875535e+00  1.12310207e+00
  1.12644883e+00  1.12775998e+00  1.12900721e+00  1.13275426e+00
  1.13442312e+00  1.13708570e+00  1.13733693e+00  1.14042157e+00
  1.14149335e+00  1.14634879e+00  1.14853345e+00  1.15080276e+00
  1.15347031e+00  1.15550650e+00  1.16008280e+00  1.16328521e+00
  1.16509527e+00  1.17064708e+00  1.17224291e+00  1.17333442e+00
  1.17605107e+00  1.18377513e+00  1.18738057e+00  1.18867459e+00
  1.18965453e+00  1.19126032e+00  1.19396947e+00  1.19740725e+00
  1.19977564e+00  1.20744949e+00  1.21052250e+00  1.21376781e+00
  1.21612664e+00  1.21711411e+00  1.21951130e+00  1.22194835e+00
  1.22370772e+00  1.22583032e+00  1.22788200e+00  1.22988234e+00
  1.23436517e+00  1.23761539e+00  1.24056992e+00  1.24333010e+00
  1.24447927e+00  1.24766288e+00  1.24868121e+00  1.24938045e+00
  1.25342458e+00  1.25749007e+00  1.25839023e+00  1.26233415e+00
  1.26394469e+00  1.27050869e+00  1.27303256e+00  1.27525224e+00
  1.27667734e+00  1.28010752e+00  1.28310935e+00  1.28492668e+00
  1.28881503e+00  1.29107058e+00  1.29588942e+00  1.29999760e+00
  1.30136481e+00  1.30237847e+00  1.30665349e+00  1.31071579e+00
  1.31146756e+00  1.31383963e+00  1.31747099e+00  1.31918441e+00
  1.32330549e+00  1.32979541e+00  1.33108788e+00  1.33251180e+00
  1.33530356e+00  1.33685840e+00  1.33751448e+00  1.34153846e+00
  1.34219848e+00  1.34746153e+00  1.35005049e+00  1.35245428e+00
  1.35406227e+00  1.36028349e+00  1.36400128e+00  1.36958036e+00
  1.37325964e+00  1.37756758e+00  1.38045118e+00  1.38350714e+00
  1.38937044e+00  1.39106385e+00  1.39426045e+00  1.39811776e+00
  1.40293145e+00  1.40744178e+00  1.40920316e+00  1.41102220e+00
  1.41919770e+00  1.42467728e+00  1.42793324e+00  1.43249954e+00
  1.43566361e+00  1.43873563e+00  1.44067197e+00  1.44439704e+00
  1.44639960e+00  1.45010531e+00  1.45520400e+00  1.46097946e+00
  1.46576429e+00  1.46783212e+00  1.47238215e+00  1.47335328e+00
  1.48146750e+00  1.48513092e+00  1.48686959e+00  1.48913775e+00
  1.49653352e+00  1.50127617e+00  1.50633469e+00  1.50773592e+00
  1.51342323e+00  1.51800511e+00  1.52196350e+00  1.52398803e+00
  1.53248210e+00  1.53953024e+00  1.54306514e+00  1.54582859e+00
  1.55256797e+00  1.55804755e+00  1.57029582e+00  1.57062093e+00
  1.58261589e+00  1.58526706e+00  1.59285252e+00  1.59738547e+00
  1.62716009e+00  1.63796320e+00  1.64212147e+00  1.65358597e+00
  1.66126236e+00  1.66700635e+00  1.68446103e+00  1.69809245e+00
  1.70706719e+00  1.71442972e+00  1.72226068e+00  1.72316440e+00
  1.78367411e+00  1.82332344e+00  1.88637906e+00  1.91388359e+00
  1.93247244e+00  1.96698362e+00  2.00122188e+00  2.02235268e+00
  2.08756602e+00  2.13605548e+00  2.18349161e+00  2.26654031e+00
  2.30310514e+00  2.36343538e+00  2.42782179e+00  2.45203912e+00
  2.49508243e+00  2.50288470e+00  2.53428730e+00  2.56403060e+00
  2.63864956e+00  2.69199982e+00  2.71422762e+00  2.73657508e+00
  2.80512478e+00  2.82859963e+00  2.84775800e+00  2.88821443e+00
  2.89106590e+00  2.91063583e+00  2.99427792e+00  3.02474142e+00
  3.08031351e+00  3.08184742e+00  3.13084475e+00  3.14004750e+00
  3.16568499e+00  3.19591352e+00  3.21894063e+00  3.24279639e+00
  3.30598357e+00  3.31194756e+00  3.31471669e+00  3.32102302e+00
  3.33935755e+00  3.35103779e+00  3.36367368e+00  3.39833991e+00
  3.40115999e+00  3.42518958e+00  3.43382878e+00  3.44655243e+00
  3.45672454e+00  3.47026842e+00  3.48540862e+00  3.48679493e+00
  3.51049340e+00  3.52708767e+00  3.53796355e+00  3.54343983e+00
  3.55733058e+00  3.57403824e+00  3.58432395e+00  3.59728854e+00
  3.62633387e+00  3.65017831e+00  3.68444185e+00  3.68639028e+00
  3.70380820e+00  3.71560641e+00  3.72528776e+00  3.74223190e+00
  3.78373427e+00  3.78813060e+00  3.79220947e+00  3.82084471e+00
  3.87094528e+00  3.87169838e+00  3.91084647e+00  3.94216714e+00
  3.94658092e+00  3.97178005e+00  3.98766639e+00  4.00687138e+00
  4.04268188e+00  4.04734225e+00  4.06562224e+00  4.07511342e+00
  4.09320384e+00  4.10788745e+00  4.12475036e+00  4.17442180e+00
  4.26423578e+00  4.29790125e+00  4.30893785e+00  4.31563966e+00
  4.40429946e+00  4.41334599e+00  4.44168591e+00  4.45584555e+00
  4.49193808e+00  4.52277335e+00  4.53251748e+00  4.53920493e+00
  4.67035801e+00  4.69608366e+00  4.70138731e+00  4.74364553e+00
  4.79475273e+00  4.83918313e+00  4.85261429e+00  4.96104037e+00
  5.03057925e+00  5.06885143e+00  5.10027414e+00  5.15786656e+00
  5.19473775e+00  5.34025340e+00  5.34716988e+00  5.41305428e+00
  5.45464529e+00  5.50715705e+00  5.51224651e+00  5.54760198e+00
  5.59386502e+00  5.62034549e+00  5.62803002e+00  5.70091753e+00
  5.76981273e+00  5.77671450e+00  5.86355585e+00  5.89487678e+00
  6.00059078e+00  6.01256993e+00  6.10603977e+00  6.13094142e+00
  6.13631305e+00  6.15827993e+00  6.21974215e+00  6.22531742e+00
  6.30086283e+00  6.40671825e+00  6.46336249e+00  6.48232476e+00
  6.49770043e+00  6.60957871e+00  6.66320015e+00  6.73895155e+00
  6.81991965e+00  6.87484908e+00  6.91883306e+00  6.99394073e+00
  7.02067200e+00  7.06070288e+00  7.12888211e+00  7.22257365e+00
  7.24756834e+00  7.31849293e+00  7.36428704e+00  7.37406580e+00
  7.44543434e+00  7.48427048e+00  7.54389226e+00  7.54710589e+00
  7.76916246e+00  7.78137589e+00  7.95768538e+00  8.02135958e+00
  8.11768484e+00  8.47163631e+00  1.12778399e+01  1.31674317e+01
  1.33932067e+01  1.41279146e+01  1.59222393e+01  1.75584779e+01]
E1 = -2168.8172849253765  E_coul = 918.2378079585723
cycle= 50 E= -504.437303912417  delta_E= -3.1e-08  |g|= 3.74e-05  |ddm|= 0.00152
    CPU time for cycle= 50    566.76 sec, wall time     17.90 sec
    CPU time for scf_cycle  32111.30 sec, wall time   1014.91 sec
    CPU time for SCF  32111.32 sec, wall time   1014.91 sec
SCF not converged.
SCF energy = -504.437303912417
