#INFO: **** input file is /burg/ccce/users/eav2136/projects/batteries/01_mp2/hf_script.py ****
#!/usr/bin/env python3
from pyscf import gto, scf, mp
import sys
from fileutils import dump
import h5py

mol = gto.Mole()
mol.verbose = 10
mol.atom = f"geom_{sys.argv[1]}.xyz"
mol.basis = "ccpvtz"
mol.unit = "ANG"
mol.build()

mf = scf.RHF(mol)
# determine the output of mf.kernel()
mf.kernel()

conv = mf.converged
e_tot = mf.e_tot
mo_energy = mf.mo_energy
mo_coeff = mf.mo_coeff

dataout = {}
dataout["e_tot"] = e_tot
dataout["conv"] = conv
dump(dataout, f"data/hf_geom_{sys.argv[1]}.json")

with h5py.File(f"data/hf_geom_{sys.argv[1]}.h5", "w") as f:
    f.create_dataset("mo_energy", data=mo_energy)
    f.create_dataset("mo_coeff", data=mo_coeff)#INFO: ******************** input file end ********************


System: uname_result(system='Linux', node='g153', release='4.18.0-193.el8.x86_64', version='#1 SMP Fri Mar 27 14:35:58 UTC 2020', machine='x86_64')  Threads 32
Python 3.10.12 (main, Jul 29 2023, 11:27:27) [GCC 13.2.0]
numpy 1.25.1  scipy 1.10.1
Date: Fri Jan 19 11:54:44 2024
PySCF version 2.0.1
PySCF path  /burg/berkelbach/users/eav2136/builds/pyscf/projected-cvs/pyscf
GIT ORIG_HEAD 0bfbc692adf3ea63b8a509210433219cd1c472a2
GIT HEAD (branch projected-cvs) e14caaa2dddc538b9be2d86f01e5b456fc92da36

[ENV] PYSCF_TMPDIR /burg/ccce/users/eav2136/projects/batteries/01_mp2/tmp
[ENV] PYSCF_MAX_MEMORY 700000
[CONFIG] DEBUG = False
[CONFIG] MAX_MEMORY = 700000
[CONFIG] TMPDIR = /burg/ccce/users/eav2136/projects/batteries/01_mp2/tmp
[CONFIG] UNIT = angstrom
[CONFIG] VERBOSE = 3
[CONFIG] conf_file = None
[INPUT] verbose = 10
[INPUT] max_memory = 700000 
[INPUT] num. atoms = 40
[INPUT] num. electrons = 136
[INPUT] charge = 0
[INPUT] spin (= nelec alpha-beta = 2S) = 0
[INPUT] symmetry False subgroup None
[INPUT] Mole.unit = ANG
[INPUT]  1 C      4.889700000000   4.599650000000  10.258310000000 AA    9.240193831286   8.692078768856  19.385396400887 Bohr
[INPUT]  2 O      4.870170000000   4.245790000000   8.952570000000 AA    9.203287480073   8.023380282417  16.917905410997 Bohr
[INPUT]  3 C      5.310840000000   5.193710000000   8.233300000000 AA   10.036033091385   9.814689470415  15.558682101382 Bohr
[INPUT]  4 O      5.765780000000   6.111200000000   8.982240000000 AA   10.895745094495  11.548494292442  16.973973585113 Bohr
[INPUT]  5 C      5.774150000000   5.702340000000  10.272330000000 AA   10.911562102157  10.775860869152  19.411890361153 Bohr
[INPUT]  6 O      5.299720000000   5.216150000000   7.112960000000 AA   10.015019336880   9.857094924650  13.441546334986 Bohr
[INPUT]  7 H      5.212360000000   3.798320000000  10.814180000000 AA    9.849932862638   7.177784533458  20.435838461749 Bohr
[INPUT]  8 H      3.953110000000   4.871240000000  10.548100000000 AA    7.470295240279   9.205309487026  19.933020134525 Bohr
[INPUT]  9 H      5.464720000000   6.479910000000  10.867980000000 AA   10.326824147433  12.245255211830  20.537505727251 Bohr
[INPUT] 10 H      6.716790000000   5.418990000000  10.529430000000 AA   12.692893536217  10.240406971757  19.897738947779 Bohr
[INPUT] 11 Li     5.263950000000   5.263950000000   5.263950000000 AA    9.947423833404   9.947423833404   9.947423833404 Bohr
[INPUT] 12 Li     5.263950000000   1.754650000000   5.263950000000 AA    9.947423833404   3.315807944468   9.947423833404 Bohr
[INPUT] 13 Li     8.773250000000   5.263950000000   5.263950000000 AA   16.579039722340   9.947423833404   9.947423833404 Bohr
[INPUT] 14 Li     1.754650000000   5.263950000000   5.263950000000 AA    3.315807944468   9.947423833404   9.947423833404 Bohr
[INPUT] 15 Li     5.263950000000   8.773250000000   5.263950000000 AA    9.947423833404  16.579039722340   9.947423833404 Bohr
[INPUT] 16 Li     7.018600000000   3.509300000000   3.509300000000 AA   13.263231777872   6.631615888936   6.631615888936 Bohr
[INPUT] 17 Li     3.509300000000   3.509300000000   3.509300000000 AA    6.631615888936   6.631615888936   6.631615888936 Bohr
[INPUT] 18 Li     7.018600000000   7.018600000000   3.509300000000 AA   13.263231777872  13.263231777872   6.631615888936 Bohr
[INPUT] 19 Li     3.509300000000   7.018600000000   3.509300000000 AA    6.631615888936  13.263231777872   6.631615888936 Bohr
[INPUT] 20 Li     8.773250000000   1.754650000000   5.263950000000 AA   16.579039722340   3.315807944468   9.947423833404 Bohr
[INPUT] 21 Li     1.754650000000   1.754650000000   5.263950000000 AA    3.315807944468   3.315807944468   9.947423833404 Bohr
[INPUT] 22 Li     8.773250000000   8.773250000000   5.263950000000 AA   16.579039722340  16.579039722340   9.947423833404 Bohr
[INPUT] 23 Li     1.754650000000   8.773250000000   5.263950000000 AA    3.315807944468  16.579039722340   9.947423833404 Bohr
[INPUT] 24 Li     5.263950000000   5.263950000000   1.754650000000 AA    9.947423833404   9.947423833404   3.315807944468 Bohr
[INPUT] 25 Li     5.263950000000   1.754650000000   1.754650000000 AA    9.947423833404   3.315807944468   3.315807944468 Bohr
[INPUT] 26 Li     8.773250000000   5.263950000000   1.754650000000 AA   16.579039722340   9.947423833404   3.315807944468 Bohr
[INPUT] 27 Li     1.754650000000   5.263950000000   1.754650000000 AA    3.315807944468   9.947423833404   3.315807944468 Bohr
[INPUT] 28 Li     5.263950000000   8.773250000000   1.754650000000 AA    9.947423833404  16.579039722340   3.315807944468 Bohr
[INPUT] 29 Li     7.018600000000   0.000000000000   3.509300000000 AA   13.263231777872   0.000000000000   6.631615888936 Bohr
[INPUT] 30 Li     3.509300000000   0.000000000000   3.509300000000 AA    6.631615888936   0.000000000000   6.631615888936 Bohr
[INPUT] 31 Li     0.000000000000   3.509300000000   3.509300000000 AA    0.000000000000   6.631615888936   6.631615888936 Bohr
[INPUT] 32 Li     0.000000000000   7.018600000000   3.509300000000 AA    0.000000000000  13.263231777872   6.631615888936 Bohr
[INPUT] 33 Li     8.773250000000   1.754650000000   1.754650000000 AA   16.579039722340   3.315807944468   3.315807944468 Bohr
[INPUT] 34 Li     1.754650000000   1.754650000000   1.754650000000 AA    3.315807944468   3.315807944468   3.315807944468 Bohr
[INPUT] 35 Li     8.773250000000   8.773250000000   1.754650000000 AA   16.579039722340  16.579039722340   3.315807944468 Bohr
[INPUT] 36 Li     1.754650000000   8.773250000000   1.754650000000 AA    3.315807944468  16.579039722340   3.315807944468 Bohr
[INPUT] 37 Li     7.018600000000   3.509300000000   0.000000000000 AA   13.263231777872   6.631615888936   0.000000000000 Bohr
[INPUT] 38 Li     3.509300000000   3.509300000000   0.000000000000 AA    6.631615888936   6.631615888936   0.000000000000 Bohr
[INPUT] 39 Li     7.018600000000   7.018600000000   0.000000000000 AA   13.263231777872  13.263231777872   0.000000000000 Bohr
[INPUT] 40 Li     3.509300000000   7.018600000000   0.000000000000 AA    6.631615888936  13.263231777872   0.000000000000 Bohr
[INPUT] ---------------- BASIS SET ---------------- 
[INPUT] l, kappa, [nprim/nctr], expnt,             c_1 c_2 ...
[INPUT] O
[INPUT] 0    0    [8    /2   ]  15330             0.000508 -0.000115
                                2299              0.003929 -0.000895
                                522.4             0.020243 -0.004636
                                147.3             0.079181 -0.018724
                                47.55             0.230687 -0.058463
                                16.76             0.433118 -0.136463
                                6.207             0.35026 -0.17574
                                0.6882            -0.008154 0.603418
[INPUT] 0    0    [1    /1   ]  1.752                1
[INPUT] 0    0    [1    /1   ]  0.2384               1
[INPUT] 1    0    [3    /1   ]  34.46             0.015928
                                7.749             0.09974
                                2.28              0.310492
[INPUT] 1    0    [1    /1   ]  0.7156               1
[INPUT] 1    0    [1    /1   ]  0.214                1
[INPUT] 2    0    [1    /1   ]  2.314                1
[INPUT] 2    0    [1    /1   ]  0.645                1
[INPUT] 3    0    [1    /1   ]  1.428                1
[INPUT] H
[INPUT] 0    0    [3    /1   ]  33.87             0.006068
                                5.095             0.045308
                                1.159             0.202822
[INPUT] 0    0    [1    /1   ]  0.3258               1
[INPUT] 0    0    [1    /1   ]  0.1027               1
[INPUT] 1    0    [1    /1   ]  1.407                1
[INPUT] 1    0    [1    /1   ]  0.388                1
[INPUT] 2    0    [1    /1   ]  1.057                1
[INPUT] C
[INPUT] 0    0    [8    /2   ]  8236              0.000531 -0.000113
                                1235              0.004108 -0.000878
                                280.8             0.021087 -0.00454
                                79.27             0.081853 -0.018133
                                25.59             0.234817 -0.05576
                                8.997             0.434401 -0.126895
                                3.319             0.346129 -0.170352
                                0.3643            -0.008983 0.598684
[INPUT] 0    0    [1    /1   ]  0.9059               1
[INPUT] 0    0    [1    /1   ]  0.1285               1
[INPUT] 1    0    [3    /1   ]  18.71             0.014031
                                4.133             0.086866
                                1.2               0.290216
[INPUT] 1    0    [1    /1   ]  0.3827               1
[INPUT] 1    0    [1    /1   ]  0.1209               1
[INPUT] 2    0    [1    /1   ]  1.097                1
[INPUT] 2    0    [1    /1   ]  0.318                1
[INPUT] 3    0    [1    /1   ]  0.761                1
[INPUT] Li
[INPUT] 0    0    [9    /2   ]  5988              0.000133 -2.1e-05
                                898.9             0.001025 -0.000161
                                205.9             0.005272 -0.00082
                                59.24             0.020929 -0.003326
                                19.87             0.06634 -0.010519
                                7.406             0.165775 -0.028097
                                2.93              0.315038 -0.055936
                                1.189             0.393523 -0.099237
                                0.4798            0.19087 -0.112189
[INPUT] 0    0    [1    /1   ]  0.07509              1
[INPUT] 0    0    [1    /1   ]  0.02832              1
[INPUT] 1    0    [3    /1   ]  3.266             0.00863
                                0.6511            0.047538
                                0.1696            0.209772
[INPUT] 1    0    [1    /1   ]  0.05578              1
[INPUT] 1    0    [1    /1   ]  0.0205               1
[INPUT] 2    0    [1    /1   ]  0.1874               1
[INPUT] 2    0    [1    /1   ]  0.0801               1
[INPUT] 3    0    [1    /1   ]  0.1829               1

nuclear repulsion = 991.396526884248
number of shells = 348
number of NR pGTOs = 1606
number of NR cGTOs = 1136
basis = ccpvtz
ecp = {}
bas 0, expnt(s) = [8.236e+03 1.235e+03 2.808e+02 7.927e+01 2.559e+01 8.997e+00 3.319e+00
 3.643e-01]
bas 1, expnt(s) = [0.9059]
bas 2, expnt(s) = [0.1285]
bas 3, expnt(s) = [18.71   4.133  1.2  ]
bas 4, expnt(s) = [0.3827]
bas 5, expnt(s) = [0.1209]
bas 6, expnt(s) = [1.097]
bas 7, expnt(s) = [0.318]
bas 8, expnt(s) = [0.761]
bas 9, expnt(s) = [1.533e+04 2.299e+03 5.224e+02 1.473e+02 4.755e+01 1.676e+01 6.207e+00
 6.882e-01]
bas 10, expnt(s) = [1.752]
bas 11, expnt(s) = [0.2384]
bas 12, expnt(s) = [34.46   7.749  2.28 ]
bas 13, expnt(s) = [0.7156]
bas 14, expnt(s) = [0.214]
bas 15, expnt(s) = [2.314]
bas 16, expnt(s) = [0.645]
bas 17, expnt(s) = [1.428]
bas 18, expnt(s) = [8.236e+03 1.235e+03 2.808e+02 7.927e+01 2.559e+01 8.997e+00 3.319e+00
 3.643e-01]
bas 19, expnt(s) = [0.9059]
bas 20, expnt(s) = [0.1285]
bas 21, expnt(s) = [18.71   4.133  1.2  ]
bas 22, expnt(s) = [0.3827]
bas 23, expnt(s) = [0.1209]
bas 24, expnt(s) = [1.097]
bas 25, expnt(s) = [0.318]
bas 26, expnt(s) = [0.761]
bas 27, expnt(s) = [1.533e+04 2.299e+03 5.224e+02 1.473e+02 4.755e+01 1.676e+01 6.207e+00
 6.882e-01]
bas 28, expnt(s) = [1.752]
bas 29, expnt(s) = [0.2384]
bas 30, expnt(s) = [34.46   7.749  2.28 ]
bas 31, expnt(s) = [0.7156]
bas 32, expnt(s) = [0.214]
bas 33, expnt(s) = [2.314]
bas 34, expnt(s) = [0.645]
bas 35, expnt(s) = [1.428]
bas 36, expnt(s) = [8.236e+03 1.235e+03 2.808e+02 7.927e+01 2.559e+01 8.997e+00 3.319e+00
 3.643e-01]
bas 37, expnt(s) = [0.9059]
bas 38, expnt(s) = [0.1285]
bas 39, expnt(s) = [18.71   4.133  1.2  ]
bas 40, expnt(s) = [0.3827]
bas 41, expnt(s) = [0.1209]
bas 42, expnt(s) = [1.097]
bas 43, expnt(s) = [0.318]
bas 44, expnt(s) = [0.761]
bas 45, expnt(s) = [1.533e+04 2.299e+03 5.224e+02 1.473e+02 4.755e+01 1.676e+01 6.207e+00
 6.882e-01]
bas 46, expnt(s) = [1.752]
bas 47, expnt(s) = [0.2384]
bas 48, expnt(s) = [34.46   7.749  2.28 ]
bas 49, expnt(s) = [0.7156]
bas 50, expnt(s) = [0.214]
bas 51, expnt(s) = [2.314]
bas 52, expnt(s) = [0.645]
bas 53, expnt(s) = [1.428]
bas 54, expnt(s) = [33.87   5.095  1.159]
bas 55, expnt(s) = [0.3258]
bas 56, expnt(s) = [0.1027]
bas 57, expnt(s) = [1.407]
bas 58, expnt(s) = [0.388]
bas 59, expnt(s) = [1.057]
bas 60, expnt(s) = [33.87   5.095  1.159]
bas 61, expnt(s) = [0.3258]
bas 62, expnt(s) = [0.1027]
bas 63, expnt(s) = [1.407]
bas 64, expnt(s) = [0.388]
bas 65, expnt(s) = [1.057]
bas 66, expnt(s) = [33.87   5.095  1.159]
bas 67, expnt(s) = [0.3258]
bas 68, expnt(s) = [0.1027]
bas 69, expnt(s) = [1.407]
bas 70, expnt(s) = [0.388]
bas 71, expnt(s) = [1.057]
bas 72, expnt(s) = [33.87   5.095  1.159]
bas 73, expnt(s) = [0.3258]
bas 74, expnt(s) = [0.1027]
bas 75, expnt(s) = [1.407]
bas 76, expnt(s) = [0.388]
bas 77, expnt(s) = [1.057]
bas 78, expnt(s) = [5.988e+03 8.989e+02 2.059e+02 5.924e+01 1.987e+01 7.406e+00 2.930e+00
 1.189e+00 4.798e-01]
bas 79, expnt(s) = [0.07509]
bas 80, expnt(s) = [0.02832]
bas 81, expnt(s) = [3.266  0.6511 0.1696]
bas 82, expnt(s) = [0.05578]
bas 83, expnt(s) = [0.0205]
bas 84, expnt(s) = [0.1874]
bas 85, expnt(s) = [0.0801]
bas 86, expnt(s) = [0.1829]
bas 87, expnt(s) = [5.988e+03 8.989e+02 2.059e+02 5.924e+01 1.987e+01 7.406e+00 2.930e+00
 1.189e+00 4.798e-01]
bas 88, expnt(s) = [0.07509]
bas 89, expnt(s) = [0.02832]
bas 90, expnt(s) = [3.266  0.6511 0.1696]
bas 91, expnt(s) = [0.05578]
bas 92, expnt(s) = [0.0205]
bas 93, expnt(s) = [0.1874]
bas 94, expnt(s) = [0.0801]
bas 95, expnt(s) = [0.1829]
bas 96, expnt(s) = [5.988e+03 8.989e+02 2.059e+02 5.924e+01 1.987e+01 7.406e+00 2.930e+00
 1.189e+00 4.798e-01]
bas 97, expnt(s) = [0.07509]
bas 98, expnt(s) = [0.02832]
bas 99, expnt(s) = [3.266  0.6511 0.1696]
bas 100, expnt(s) = [0.05578]
bas 101, expnt(s) = [0.0205]
bas 102, expnt(s) = [0.1874]
bas 103, expnt(s) = [0.0801]
bas 104, expnt(s) = [0.1829]
bas 105, expnt(s) = [5.988e+03 8.989e+02 2.059e+02 5.924e+01 1.987e+01 7.406e+00 2.930e+00
 1.189e+00 4.798e-01]
bas 106, expnt(s) = [0.07509]
bas 107, expnt(s) = [0.02832]
bas 108, expnt(s) = [3.266  0.6511 0.1696]
bas 109, expnt(s) = [0.05578]
bas 110, expnt(s) = [0.0205]
bas 111, expnt(s) = [0.1874]
bas 112, expnt(s) = [0.0801]
bas 113, expnt(s) = [0.1829]
bas 114, expnt(s) = [5.988e+03 8.989e+02 2.059e+02 5.924e+01 1.987e+01 7.406e+00 2.930e+00
 1.189e+00 4.798e-01]
bas 115, expnt(s) = [0.07509]
bas 116, expnt(s) = [0.02832]
bas 117, expnt(s) = [3.266  0.6511 0.1696]
bas 118, expnt(s) = [0.05578]
bas 119, expnt(s) = [0.0205]
bas 120, expnt(s) = [0.1874]
bas 121, expnt(s) = [0.0801]
bas 122, expnt(s) = [0.1829]
bas 123, expnt(s) = [5.988e+03 8.989e+02 2.059e+02 5.924e+01 1.987e+01 7.406e+00 2.930e+00
 1.189e+00 4.798e-01]
bas 124, expnt(s) = [0.07509]
bas 125, expnt(s) = [0.02832]
bas 126, expnt(s) = [3.266  0.6511 0.1696]
bas 127, expnt(s) = [0.05578]
bas 128, expnt(s) = [0.0205]
bas 129, expnt(s) = [0.1874]
bas 130, expnt(s) = [0.0801]
bas 131, expnt(s) = [0.1829]
bas 132, expnt(s) = [5.988e+03 8.989e+02 2.059e+02 5.924e+01 1.987e+01 7.406e+00 2.930e+00
 1.189e+00 4.798e-01]
bas 133, expnt(s) = [0.07509]
bas 134, expnt(s) = [0.02832]
bas 135, expnt(s) = [3.266  0.6511 0.1696]
bas 136, expnt(s) = [0.05578]
bas 137, expnt(s) = [0.0205]
bas 138, expnt(s) = [0.1874]
bas 139, expnt(s) = [0.0801]
bas 140, expnt(s) = [0.1829]
bas 141, expnt(s) = [5.988e+03 8.989e+02 2.059e+02 5.924e+01 1.987e+01 7.406e+00 2.930e+00
 1.189e+00 4.798e-01]
bas 142, expnt(s) = [0.07509]
bas 143, expnt(s) = [0.02832]
bas 144, expnt(s) = [3.266  0.6511 0.1696]
bas 145, expnt(s) = [0.05578]
bas 146, expnt(s) = [0.0205]
bas 147, expnt(s) = [0.1874]
bas 148, expnt(s) = [0.0801]
bas 149, expnt(s) = [0.1829]
bas 150, expnt(s) = [5.988e+03 8.989e+02 2.059e+02 5.924e+01 1.987e+01 7.406e+00 2.930e+00
 1.189e+00 4.798e-01]
bas 151, expnt(s) = [0.07509]
bas 152, expnt(s) = [0.02832]
bas 153, expnt(s) = [3.266  0.6511 0.1696]
bas 154, expnt(s) = [0.05578]
bas 155, expnt(s) = [0.0205]
bas 156, expnt(s) = [0.1874]
bas 157, expnt(s) = [0.0801]
bas 158, expnt(s) = [0.1829]
bas 159, expnt(s) = [5.988e+03 8.989e+02 2.059e+02 5.924e+01 1.987e+01 7.406e+00 2.930e+00
 1.189e+00 4.798e-01]
bas 160, expnt(s) = [0.07509]
bas 161, expnt(s) = [0.02832]
bas 162, expnt(s) = [3.266  0.6511 0.1696]
bas 163, expnt(s) = [0.05578]
bas 164, expnt(s) = [0.0205]
bas 165, expnt(s) = [0.1874]
bas 166, expnt(s) = [0.0801]
bas 167, expnt(s) = [0.1829]
bas 168, expnt(s) = [5.988e+03 8.989e+02 2.059e+02 5.924e+01 1.987e+01 7.406e+00 2.930e+00
 1.189e+00 4.798e-01]
bas 169, expnt(s) = [0.07509]
bas 170, expnt(s) = [0.02832]
bas 171, expnt(s) = [3.266  0.6511 0.1696]
bas 172, expnt(s) = [0.05578]
bas 173, expnt(s) = [0.0205]
bas 174, expnt(s) = [0.1874]
bas 175, expnt(s) = [0.0801]
bas 176, expnt(s) = [0.1829]
bas 177, expnt(s) = [5.988e+03 8.989e+02 2.059e+02 5.924e+01 1.987e+01 7.406e+00 2.930e+00
 1.189e+00 4.798e-01]
bas 178, expnt(s) = [0.07509]
bas 179, expnt(s) = [0.02832]
bas 180, expnt(s) = [3.266  0.6511 0.1696]
bas 181, expnt(s) = [0.05578]
bas 182, expnt(s) = [0.0205]
bas 183, expnt(s) = [0.1874]
bas 184, expnt(s) = [0.0801]
bas 185, expnt(s) = [0.1829]
bas 186, expnt(s) = [5.988e+03 8.989e+02 2.059e+02 5.924e+01 1.987e+01 7.406e+00 2.930e+00
 1.189e+00 4.798e-01]
bas 187, expnt(s) = [0.07509]
bas 188, expnt(s) = [0.02832]
bas 189, expnt(s) = [3.266  0.6511 0.1696]
bas 190, expnt(s) = [0.05578]
bas 191, expnt(s) = [0.0205]
bas 192, expnt(s) = [0.1874]
bas 193, expnt(s) = [0.0801]
bas 194, expnt(s) = [0.1829]
bas 195, expnt(s) = [5.988e+03 8.989e+02 2.059e+02 5.924e+01 1.987e+01 7.406e+00 2.930e+00
 1.189e+00 4.798e-01]
bas 196, expnt(s) = [0.07509]
bas 197, expnt(s) = [0.02832]
bas 198, expnt(s) = [3.266  0.6511 0.1696]
bas 199, expnt(s) = [0.05578]
bas 200, expnt(s) = [0.0205]
bas 201, expnt(s) = [0.1874]
bas 202, expnt(s) = [0.0801]
bas 203, expnt(s) = [0.1829]
bas 204, expnt(s) = [5.988e+03 8.989e+02 2.059e+02 5.924e+01 1.987e+01 7.406e+00 2.930e+00
 1.189e+00 4.798e-01]
bas 205, expnt(s) = [0.07509]
bas 206, expnt(s) = [0.02832]
bas 207, expnt(s) = [3.266  0.6511 0.1696]
bas 208, expnt(s) = [0.05578]
bas 209, expnt(s) = [0.0205]
bas 210, expnt(s) = [0.1874]
bas 211, expnt(s) = [0.0801]
bas 212, expnt(s) = [0.1829]
bas 213, expnt(s) = [5.988e+03 8.989e+02 2.059e+02 5.924e+01 1.987e+01 7.406e+00 2.930e+00
 1.189e+00 4.798e-01]
bas 214, expnt(s) = [0.07509]
bas 215, expnt(s) = [0.02832]
bas 216, expnt(s) = [3.266  0.6511 0.1696]
bas 217, expnt(s) = [0.05578]
bas 218, expnt(s) = [0.0205]
bas 219, expnt(s) = [0.1874]
bas 220, expnt(s) = [0.0801]
bas 221, expnt(s) = [0.1829]
bas 222, expnt(s) = [5.988e+03 8.989e+02 2.059e+02 5.924e+01 1.987e+01 7.406e+00 2.930e+00
 1.189e+00 4.798e-01]
bas 223, expnt(s) = [0.07509]
bas 224, expnt(s) = [0.02832]
bas 225, expnt(s) = [3.266  0.6511 0.1696]
bas 226, expnt(s) = [0.05578]
bas 227, expnt(s) = [0.0205]
bas 228, expnt(s) = [0.1874]
bas 229, expnt(s) = [0.0801]
bas 230, expnt(s) = [0.1829]
bas 231, expnt(s) = [5.988e+03 8.989e+02 2.059e+02 5.924e+01 1.987e+01 7.406e+00 2.930e+00
 1.189e+00 4.798e-01]
bas 232, expnt(s) = [0.07509]
bas 233, expnt(s) = [0.02832]
bas 234, expnt(s) = [3.266  0.6511 0.1696]
bas 235, expnt(s) = [0.05578]
bas 236, expnt(s) = [0.0205]
bas 237, expnt(s) = [0.1874]
bas 238, expnt(s) = [0.0801]
bas 239, expnt(s) = [0.1829]
bas 240, expnt(s) = [5.988e+03 8.989e+02 2.059e+02 5.924e+01 1.987e+01 7.406e+00 2.930e+00
 1.189e+00 4.798e-01]
bas 241, expnt(s) = [0.07509]
bas 242, expnt(s) = [0.02832]
bas 243, expnt(s) = [3.266  0.6511 0.1696]
bas 244, expnt(s) = [0.05578]
bas 245, expnt(s) = [0.0205]
bas 246, expnt(s) = [0.1874]
bas 247, expnt(s) = [0.0801]
bas 248, expnt(s) = [0.1829]
bas 249, expnt(s) = [5.988e+03 8.989e+02 2.059e+02 5.924e+01 1.987e+01 7.406e+00 2.930e+00
 1.189e+00 4.798e-01]
bas 250, expnt(s) = [0.07509]
bas 251, expnt(s) = [0.02832]
bas 252, expnt(s) = [3.266  0.6511 0.1696]
bas 253, expnt(s) = [0.05578]
bas 254, expnt(s) = [0.0205]
bas 255, expnt(s) = [0.1874]
bas 256, expnt(s) = [0.0801]
bas 257, expnt(s) = [0.1829]
bas 258, expnt(s) = [5.988e+03 8.989e+02 2.059e+02 5.924e+01 1.987e+01 7.406e+00 2.930e+00
 1.189e+00 4.798e-01]
bas 259, expnt(s) = [0.07509]
bas 260, expnt(s) = [0.02832]
bas 261, expnt(s) = [3.266  0.6511 0.1696]
bas 262, expnt(s) = [0.05578]
bas 263, expnt(s) = [0.0205]
bas 264, expnt(s) = [0.1874]
bas 265, expnt(s) = [0.0801]
bas 266, expnt(s) = [0.1829]
bas 267, expnt(s) = [5.988e+03 8.989e+02 2.059e+02 5.924e+01 1.987e+01 7.406e+00 2.930e+00
 1.189e+00 4.798e-01]
bas 268, expnt(s) = [0.07509]
bas 269, expnt(s) = [0.02832]
bas 270, expnt(s) = [3.266  0.6511 0.1696]
bas 271, expnt(s) = [0.05578]
bas 272, expnt(s) = [0.0205]
bas 273, expnt(s) = [0.1874]
bas 274, expnt(s) = [0.0801]
bas 275, expnt(s) = [0.1829]
bas 276, expnt(s) = [5.988e+03 8.989e+02 2.059e+02 5.924e+01 1.987e+01 7.406e+00 2.930e+00
 1.189e+00 4.798e-01]
bas 277, expnt(s) = [0.07509]
bas 278, expnt(s) = [0.02832]
bas 279, expnt(s) = [3.266  0.6511 0.1696]
bas 280, expnt(s) = [0.05578]
bas 281, expnt(s) = [0.0205]
bas 282, expnt(s) = [0.1874]
bas 283, expnt(s) = [0.0801]
bas 284, expnt(s) = [0.1829]
bas 285, expnt(s) = [5.988e+03 8.989e+02 2.059e+02 5.924e+01 1.987e+01 7.406e+00 2.930e+00
 1.189e+00 4.798e-01]
bas 286, expnt(s) = [0.07509]
bas 287, expnt(s) = [0.02832]
bas 288, expnt(s) = [3.266  0.6511 0.1696]
bas 289, expnt(s) = [0.05578]
bas 290, expnt(s) = [0.0205]
bas 291, expnt(s) = [0.1874]
bas 292, expnt(s) = [0.0801]
bas 293, expnt(s) = [0.1829]
bas 294, expnt(s) = [5.988e+03 8.989e+02 2.059e+02 5.924e+01 1.987e+01 7.406e+00 2.930e+00
 1.189e+00 4.798e-01]
bas 295, expnt(s) = [0.07509]
bas 296, expnt(s) = [0.02832]
bas 297, expnt(s) = [3.266  0.6511 0.1696]
bas 298, expnt(s) = [0.05578]
bas 299, expnt(s) = [0.0205]
bas 300, expnt(s) = [0.1874]
bas 301, expnt(s) = [0.0801]
bas 302, expnt(s) = [0.1829]
bas 303, expnt(s) = [5.988e+03 8.989e+02 2.059e+02 5.924e+01 1.987e+01 7.406e+00 2.930e+00
 1.189e+00 4.798e-01]
bas 304, expnt(s) = [0.07509]
bas 305, expnt(s) = [0.02832]
bas 306, expnt(s) = [3.266  0.6511 0.1696]
bas 307, expnt(s) = [0.05578]
bas 308, expnt(s) = [0.0205]
bas 309, expnt(s) = [0.1874]
bas 310, expnt(s) = [0.0801]
bas 311, expnt(s) = [0.1829]
bas 312, expnt(s) = [5.988e+03 8.989e+02 2.059e+02 5.924e+01 1.987e+01 7.406e+00 2.930e+00
 1.189e+00 4.798e-01]
bas 313, expnt(s) = [0.07509]
bas 314, expnt(s) = [0.02832]
bas 315, expnt(s) = [3.266  0.6511 0.1696]
bas 316, expnt(s) = [0.05578]
bas 317, expnt(s) = [0.0205]
bas 318, expnt(s) = [0.1874]
bas 319, expnt(s) = [0.0801]
bas 320, expnt(s) = [0.1829]
bas 321, expnt(s) = [5.988e+03 8.989e+02 2.059e+02 5.924e+01 1.987e+01 7.406e+00 2.930e+00
 1.189e+00 4.798e-01]
bas 322, expnt(s) = [0.07509]
bas 323, expnt(s) = [0.02832]
bas 324, expnt(s) = [3.266  0.6511 0.1696]
bas 325, expnt(s) = [0.05578]
bas 326, expnt(s) = [0.0205]
bas 327, expnt(s) = [0.1874]
bas 328, expnt(s) = [0.0801]
bas 329, expnt(s) = [0.1829]
bas 330, expnt(s) = [5.988e+03 8.989e+02 2.059e+02 5.924e+01 1.987e+01 7.406e+00 2.930e+00
 1.189e+00 4.798e-01]
bas 331, expnt(s) = [0.07509]
bas 332, expnt(s) = [0.02832]
bas 333, expnt(s) = [3.266  0.6511 0.1696]
bas 334, expnt(s) = [0.05578]
bas 335, expnt(s) = [0.0205]
bas 336, expnt(s) = [0.1874]
bas 337, expnt(s) = [0.0801]
bas 338, expnt(s) = [0.1829]
bas 339, expnt(s) = [5.988e+03 8.989e+02 2.059e+02 5.924e+01 1.987e+01 7.406e+00 2.930e+00
 1.189e+00 4.798e-01]
bas 340, expnt(s) = [0.07509]
bas 341, expnt(s) = [0.02832]
bas 342, expnt(s) = [3.266  0.6511 0.1696]
bas 343, expnt(s) = [0.05578]
bas 344, expnt(s) = [0.0205]
bas 345, expnt(s) = [0.1874]
bas 346, expnt(s) = [0.0801]
bas 347, expnt(s) = [0.1829]
CPU time:         0.91
arg.atm = [[  6  20   1  23   0   0]
 [  8  24   1  27   0   0]
 [  6  28   1  31   0   0]
 [  8  32   1  35   0   0]
 [  6  36   1  39   0   0]
 [  8  40   1  43   0   0]
 [  1  44   1  47   0   0]
 [  1  48   1  51   0   0]
 [  1  52   1  55   0   0]
 [  1  56   1  59   0   0]
 [  3  60   1  63   0   0]
 [  3  64   1  67   0   0]
 [  3  68   1  71   0   0]
 [  3  72   1  75   0   0]
 [  3  76   1  79   0   0]
 [  3  80   1  83   0   0]
 [  3  84   1  87   0   0]
 [  3  88   1  91   0   0]
 [  3  92   1  95   0   0]
 [  3  96   1  99   0   0]
 [  3 100   1 103   0   0]
 [  3 104   1 107   0   0]
 [  3 108   1 111   0   0]
 [  3 112   1 115   0   0]
 [  3 116   1 119   0   0]
 [  3 120   1 123   0   0]
 [  3 124   1 127   0   0]
 [  3 128   1 131   0   0]
 [  3 132   1 135   0   0]
 [  3 136   1 139   0   0]
 [  3 140   1 143   0   0]
 [  3 144   1 147   0   0]
 [  3 148   1 151   0   0]
 [  3 152   1 155   0   0]
 [  3 156   1 159   0   0]
 [  3 160   1 163   0   0]
 [  3 164   1 167   0   0]
 [  3 168   1 171   0   0]
 [  3 172   1 175   0   0]
 [  3 176   1 179   0   0]]
arg.bas = [[  0   0   8 ... 240 248   0]
 [  0   0   1 ... 264 265   0]
 [  0   0   1 ... 266 267   0]
 ...
 [ 39   2   1 ... 325 326   0]
 [ 39   2   1 ... 327 328   0]
 [ 39   3   1 ... 329 330   0]]
arg.env = [ 0.00000000e+00  0.00000000e+00  0.00000000e+00  0.00000000e+00
  0.00000000e+00  0.00000000e+00  0.00000000e+00  0.00000000e+00
  0.00000000e+00  0.00000000e+00  0.00000000e+00  0.00000000e+00
  0.00000000e+00  0.00000000e+00  0.00000000e+00  0.00000000e+00
  0.00000000e+00  0.00000000e+00  0.00000000e+00  0.00000000e+00
  9.24019383e+00  8.69207877e+00  1.93853964e+01  0.00000000e+00
  9.20328748e+00  8.02338028e+00  1.69179054e+01  0.00000000e+00
  1.00360331e+01  9.81468947e+00  1.55586821e+01  0.00000000e+00
  1.08957451e+01  1.15484943e+01  1.69739736e+01  0.00000000e+00
  1.09115621e+01  1.07758609e+01  1.94118904e+01  0.00000000e+00
  1.00150193e+01  9.85709492e+00  1.34415463e+01  0.00000000e+00
  9.84993286e+00  7.17778453e+00  2.04358385e+01  0.00000000e+00
  7.47029524e+00  9.20530949e+00  1.99330201e+01  0.00000000e+00
  1.03268241e+01  1.22452552e+01  2.05375057e+01  0.00000000e+00
  1.26928935e+01  1.02404070e+01  1.98977389e+01  0.00000000e+00
  9.94742383e+00  9.94742383e+00  9.94742383e+00  0.00000000e+00
  9.94742383e+00  3.31580794e+00  9.94742383e+00  0.00000000e+00
  1.65790397e+01  9.94742383e+00  9.94742383e+00  0.00000000e+00
  3.31580794e+00  9.94742383e+00  9.94742383e+00  0.00000000e+00
  9.94742383e+00  1.65790397e+01  9.94742383e+00  0.00000000e+00
  1.32632318e+01  6.63161589e+00  6.63161589e+00  0.00000000e+00
  6.63161589e+00  6.63161589e+00  6.63161589e+00  0.00000000e+00
  1.32632318e+01  1.32632318e+01  6.63161589e+00  0.00000000e+00
  6.63161589e+00  1.32632318e+01  6.63161589e+00  0.00000000e+00
  1.65790397e+01  3.31580794e+00  9.94742383e+00  0.00000000e+00
  3.31580794e+00  3.31580794e+00  9.94742383e+00  0.00000000e+00
  1.65790397e+01  1.65790397e+01  9.94742383e+00  0.00000000e+00
  3.31580794e+00  1.65790397e+01  9.94742383e+00  0.00000000e+00
  9.94742383e+00  9.94742383e+00  3.31580794e+00  0.00000000e+00
  9.94742383e+00  3.31580794e+00  3.31580794e+00  0.00000000e+00
  1.65790397e+01  9.94742383e+00  3.31580794e+00  0.00000000e+00
  3.31580794e+00  9.94742383e+00  3.31580794e+00  0.00000000e+00
  9.94742383e+00  1.65790397e+01  3.31580794e+00  0.00000000e+00
  1.32632318e+01  0.00000000e+00  6.63161589e+00  0.00000000e+00
  6.63161589e+00  0.00000000e+00  6.63161589e+00  0.00000000e+00
  0.00000000e+00  6.63161589e+00  6.63161589e+00  0.00000000e+00
  0.00000000e+00  1.32632318e+01  6.63161589e+00  0.00000000e+00
  1.65790397e+01  3.31580794e+00  3.31580794e+00  0.00000000e+00
  3.31580794e+00  3.31580794e+00  3.31580794e+00  0.00000000e+00
  1.65790397e+01  1.65790397e+01  3.31580794e+00  0.00000000e+00
  3.31580794e+00  1.65790397e+01  3.31580794e+00  0.00000000e+00
  1.32632318e+01  6.63161589e+00  0.00000000e+00  0.00000000e+00
  6.63161589e+00  6.63161589e+00  0.00000000e+00  0.00000000e+00
  1.32632318e+01  1.32632318e+01  0.00000000e+00  0.00000000e+00
  6.63161589e+00  1.32632318e+01  0.00000000e+00  0.00000000e+00
  1.53300000e+04  2.29900000e+03  5.22400000e+02  1.47300000e+02
  4.75500000e+01  1.67600000e+01  6.20700000e+00  6.88200000e-01
  1.81067529e+00  3.37486577e+00  5.72265412e+00  8.66150357e+00
  1.08070276e+01  9.28179538e+00  3.56346173e+00 -1.59395830e-02
 -6.86527364e-01 -1.28759909e+00 -2.19507417e+00 -3.43047366e+00
 -4.58719692e+00 -4.89805685e+00 -2.99457591e+00  1.97563931e+00
  1.75200000e+00  3.84738459e+00  2.38400000e-01  8.61975084e-01
  3.44600000e+01  7.74900000e+00  2.28000000e+00  1.00262994e+01
  9.72213774e+00  6.55849668e+00  7.15600000e-01  1.92009319e+00
  2.14000000e-01  4.24621137e-01  2.31400000e+00  1.13283134e+01
  6.45000000e-01  1.21132000e+00  1.42800000e+00  4.39692268e+00
  3.38700000e+01  5.09500000e+00  1.15900000e+00  9.04334519e-01
  1.63100455e+00  2.40491525e+00  3.25800000e-01  1.08950276e+00
  1.02700000e-01  4.58345379e-01  1.40700000e+00  4.47045795e+00
  3.88000000e-01  8.93354953e-01  1.05700000e+00  2.87515071e+00
  8.23600000e+03  1.23500000e+03  2.80800000e+02  7.92700000e+01
  2.55900000e+01  8.99700000e+00  3.31900000e+00  3.64300000e-01
  1.18480296e+00  2.20874210e+00  3.73316324e+00  5.61216719e+00
  6.89519583e+00  5.82409515e+00  2.19663441e+00 -1.08712663e-02
 -4.28969670e-01 -8.03166571e-01 -1.36745981e+00 -2.11525239e+00
 -2.78571299e+00 -2.89453423e+00 -1.83934657e+00  1.23268730e+00
  9.05900000e-01  2.34598494e+00  1.28500000e-01  5.42241022e-01
  1.87100000e+01  4.13300000e+00  1.20000000e+00  4.47572721e+00
  4.19627876e+00  2.98800046e+00  3.82700000e-01  8.78127282e-01
  1.20900000e-01  2.07977938e-01  1.09700000e+00  3.06825171e+00
  3.18000000e-01  3.51379844e-01  7.61000000e-01  1.06690522e+00
  5.98800000e+03  8.98900000e+02  2.05900000e+02  5.92400000e+01
  1.98700000e+01  7.40600000e+00  2.93000000e+00  1.18900000e+00
  4.79800000e-01  2.29069316e-01  4.25756548e-01  7.25056076e-01
  1.13074246e+00  1.57971158e+00  1.88304523e+00  1.78512072e+00
  1.13373211e+00  2.78411257e-01 -1.33552750e-01 -2.46934407e-01
 -4.16416863e-01 -6.63522613e-01 -9.24900580e-01 -1.17847379e+00
 -1.17034612e+00 -1.05567981e+00 -6.04251387e-01  7.50900000e-02
  3.62411193e-01  2.83200000e-02  1.74415453e-01  3.26600000e+00
  6.51100000e-01  1.69600000e-01  4.55280795e-01  3.34078737e-01
  2.74333054e-01  5.57800000e-02  7.90828897e-02  2.05000000e-02
  2.26295917e-02  1.87400000e-01  1.39275961e-01  8.01000000e-02
  3.14692425e-02  1.82900000e-01  4.31510332e-02]
ecpbas  = []


******** <class 'pyscf.scf.hf.RHF'> ********
method = RHF
initial guess = minao
damping factor = 0
level_shift factor = 0
DIIS = <class 'pyscf.scf.diis.CDIIS'>
diis_start_cycle = 1
diis_space = 8
SCF conv_tol = 1e-09
SCF conv_tol_grad = None
SCF max_cycles = 50
direct_scf = True
direct_scf_tol = 1e-13
chkfile to save SCF result = /burg/ccce/users/eav2136/projects/batteries/01_mp2/tmp/tmpyr66xj5f
max_memory 700000 MB (current use 95 MB)
Set gradient conv threshold to 3.16228e-05
Nelec from initial guess = 135.99837309957996
    CPU time for vj and vk   5002.92 sec, wall time    157.07 sec
E1 = -2731.517220533654  E_coul = 1170.8748883606563
init E= -569.24580528875
cond(S) = 25780420.010354083
    CPU time for initialize scf   5013.95 sec, wall time    158.29 sec
  HOMO = -0.111716312703068  LUMO = -0.0854861022429774
  mo_energy =
[-2.08434713e+01 -2.07935991e+01 -2.07926055e+01 -1.13785430e+01
 -1.13528368e+01 -1.13477162e+01 -2.53389557e+00 -2.52425201e+00
 -2.52315923e+00 -2.52264533e+00 -2.52054299e+00 -2.51451531e+00
 -2.51338179e+00 -2.51318319e+00 -2.50530719e+00 -2.50471599e+00
 -2.50405888e+00 -2.50332360e+00 -2.50265181e+00 -2.50177856e+00
 -2.50154976e+00 -2.50126876e+00 -2.50117839e+00 -2.50012179e+00
 -2.50001493e+00 -2.49956294e+00 -2.49924465e+00 -2.49689153e+00
 -2.49687540e+00 -2.49674693e+00 -2.49457518e+00 -2.49394024e+00
 -2.49212400e+00 -2.49211150e+00 -2.49207035e+00 -2.48738332e+00
 -2.16877979e+00 -1.79612900e+00 -1.65778866e+00 -1.33706276e+00
 -1.05209249e+00 -9.01472399e-01 -8.03090465e-01 -7.85788578e-01
 -6.88651126e-01 -6.74032160e-01 -6.41684995e-01 -6.21446533e-01
 -5.69917358e-01 -5.00353958e-01 -4.94612068e-01 -4.45048308e-01
 -4.40046406e-01 -4.34972966e-01 -4.04083459e-01 -3.28924044e-01
 -3.24573883e-01 -2.92780094e-01 -2.54629528e-01 -2.48656918e-01
 -2.07400974e-01 -2.06842729e-01 -1.62083605e-01 -1.52202152e-01
 -1.28200779e-01 -1.24161240e-01 -1.12802061e-01 -1.11716313e-01
 -8.54861022e-02 -7.80316316e-02 -6.13666518e-02 -6.08875367e-02
 -5.32191857e-02 -4.95593880e-02 -4.55854369e-02 -3.30152694e-02
 -3.26510420e-02 -3.01587915e-02 -2.94815110e-02 -1.55375799e-02
 -1.49559702e-02 -1.37572932e-02 -7.31190894e-03 -4.75880143e-03
  5.99966275e-04  3.66619622e-03  9.80521087e-03  1.60451592e-02
  1.74732375e-02  2.07101327e-02  2.32198884e-02  2.49091140e-02
  2.55451332e-02  3.03395361e-02  3.21270508e-02  3.27676996e-02
  3.69063123e-02  3.74994647e-02  4.02176255e-02  4.17238788e-02
  4.20732286e-02  4.30075411e-02  4.51594728e-02  4.56481940e-02
  4.85977177e-02  4.97894435e-02  4.99754058e-02  5.17664689e-02
  5.19888384e-02  5.37340374e-02  5.48156957e-02  5.67895146e-02
  5.82397897e-02  5.95842393e-02  6.27406478e-02  6.29644280e-02
  6.32378309e-02  6.41622404e-02  6.68881224e-02  6.72386471e-02
  6.89904072e-02  7.13210732e-02  7.25699413e-02  7.26721183e-02
  7.29103546e-02  7.69644289e-02  7.80415345e-02  8.01568410e-02
  8.15739612e-02  8.29654506e-02  8.32735816e-02  8.33363381e-02
  8.36340025e-02  8.47025128e-02  8.54366640e-02  8.70216425e-02
  8.71675332e-02  8.74608724e-02  9.12840923e-02  9.31435266e-02
  9.40060437e-02  9.46532930e-02  9.58678258e-02  9.61020095e-02
  9.64842049e-02  9.74327586e-02  9.91565259e-02  9.96223476e-02
  1.01161549e-01  1.01479746e-01  1.05108158e-01  1.08250281e-01
  1.09089801e-01  1.09818593e-01  1.11736929e-01  1.13915597e-01
  1.14736183e-01  1.15617976e-01  1.17004462e-01  1.17148693e-01
  1.18589603e-01  1.19643046e-01  1.20040684e-01  1.20384074e-01
  1.21846982e-01  1.22303647e-01  1.23764652e-01  1.24588201e-01
  1.24985373e-01  1.25512314e-01  1.26042021e-01  1.28219487e-01
  1.28857899e-01  1.31266447e-01  1.32198945e-01  1.34051204e-01
  1.34911577e-01  1.36312261e-01  1.36774462e-01  1.40447035e-01
  1.41118064e-01  1.42101159e-01  1.43325973e-01  1.44151274e-01
  1.44985203e-01  1.45708190e-01  1.46583128e-01  1.49021506e-01
  1.49125766e-01  1.50471212e-01  1.51798943e-01  1.52503130e-01
  1.53343611e-01  1.55635889e-01  1.55668048e-01  1.56359922e-01
  1.57794073e-01  1.58757751e-01  1.62278009e-01  1.63420505e-01
  1.63965356e-01  1.66089383e-01  1.67700285e-01  1.67847735e-01
  1.68881454e-01  1.69649804e-01  1.71555821e-01  1.72901376e-01
  1.73956648e-01  1.74076963e-01  1.75905021e-01  1.78416004e-01
  1.79814313e-01  1.82106933e-01  1.83488533e-01  1.86778978e-01
  1.86871392e-01  1.88881326e-01  1.89562575e-01  1.90636184e-01
  1.91428866e-01  1.93629372e-01  1.94533836e-01  1.95321518e-01
  1.98055982e-01  1.99670603e-01  2.00761166e-01  2.02273678e-01
  2.02908243e-01  2.03829061e-01  2.04145073e-01  2.05467901e-01
  2.06571933e-01  2.07932082e-01  2.09055364e-01  2.09289191e-01
  2.09432356e-01  2.11876837e-01  2.12255080e-01  2.15399295e-01
  2.16588040e-01  2.18772280e-01  2.19330573e-01  2.20151723e-01
  2.22198212e-01  2.23451614e-01  2.25826414e-01  2.28662974e-01
  2.28926908e-01  2.29692542e-01  2.31538644e-01  2.33656336e-01
  2.35099830e-01  2.36677489e-01  2.37736758e-01  2.42249728e-01
  2.46046887e-01  2.46716293e-01  2.47569933e-01  2.48791181e-01
  2.50893715e-01  2.52509825e-01  2.54040032e-01  2.55622053e-01
  2.58868487e-01  2.60459823e-01  2.63496836e-01  2.66157648e-01
  2.66851679e-01  2.69437309e-01  2.72198394e-01  2.74362826e-01
  2.74808069e-01  2.76224346e-01  2.77313236e-01  2.79069241e-01
  2.80342219e-01  2.81908939e-01  2.82868129e-01  2.84215725e-01
  2.84636970e-01  2.87096729e-01  2.88390048e-01  2.90009441e-01
  2.92401285e-01  2.93689485e-01  2.95611987e-01  2.96187889e-01
  3.02273727e-01  3.03131243e-01  3.05779469e-01  3.05887896e-01
  3.07725623e-01  3.09591922e-01  3.11688663e-01  3.14455646e-01
  3.16442271e-01  3.19312623e-01  3.19678898e-01  3.20574049e-01
  3.25123164e-01  3.26742746e-01  3.27789764e-01  3.29139936e-01
  3.34709721e-01  3.38668176e-01  3.38829875e-01  3.38933763e-01
  3.43201038e-01  3.44139128e-01  3.45503990e-01  3.49069204e-01
  3.49839358e-01  3.50053766e-01  3.51023703e-01  3.53655360e-01
  3.54013196e-01  3.57143294e-01  3.57533776e-01  3.59118767e-01
  3.60569191e-01  3.61373600e-01  3.64668201e-01  3.66523091e-01
  3.67222155e-01  3.67651922e-01  3.70078613e-01  3.71042632e-01
  3.71609448e-01  3.74336586e-01  3.75791127e-01  3.77470591e-01
  3.79112496e-01  3.81419322e-01  3.82826743e-01  3.83502141e-01
  3.86878836e-01  3.89823656e-01  3.90957941e-01  3.92602716e-01
  3.93917500e-01  3.94647342e-01  3.94955441e-01  3.99900295e-01
  4.01633382e-01  4.02148985e-01  4.04341983e-01  4.05650892e-01
  4.06744336e-01  4.08396850e-01  4.09578551e-01  4.11445030e-01
  4.12100601e-01  4.13374751e-01  4.14425337e-01  4.17501597e-01
  4.17629096e-01  4.19647006e-01  4.20518948e-01  4.21493258e-01
  4.24019448e-01  4.24372005e-01  4.29179961e-01  4.30083119e-01
  4.31967250e-01  4.33542141e-01  4.35360886e-01  4.36356459e-01
  4.37145293e-01  4.38265214e-01  4.39108614e-01  4.40602421e-01
  4.40890448e-01  4.42490371e-01  4.42787408e-01  4.43364306e-01
  4.44643655e-01  4.46228199e-01  4.47156300e-01  4.47461355e-01
  4.50450718e-01  4.52517593e-01  4.53359108e-01  4.55045239e-01
  4.57006879e-01  4.58649637e-01  4.60644019e-01  4.62241400e-01
  4.62577055e-01  4.63973287e-01  4.65205445e-01  4.65876834e-01
  4.67880269e-01  4.68902586e-01  4.70368620e-01  4.70997162e-01
  4.74520367e-01  4.75349312e-01  4.77035149e-01  4.79059754e-01
  4.82227608e-01  4.83108409e-01  4.86831604e-01  4.88285497e-01
  4.89015986e-01  4.90619634e-01  4.91480637e-01  4.92238844e-01
  4.92630003e-01  4.94994163e-01  4.95721868e-01  4.96147676e-01
  4.99256417e-01  5.01878029e-01  5.02873844e-01  5.04051406e-01
  5.06777432e-01  5.08877365e-01  5.09567775e-01  5.10970264e-01
  5.13484811e-01  5.14682753e-01  5.16058942e-01  5.16888157e-01
  5.17730254e-01  5.20001205e-01  5.22672147e-01  5.22950513e-01
  5.24080459e-01  5.25958945e-01  5.28280181e-01  5.28606665e-01
  5.30663543e-01  5.32813287e-01  5.36658973e-01  5.38068424e-01
  5.38356795e-01  5.40613635e-01  5.43386051e-01  5.46538600e-01
  5.49112383e-01  5.51046763e-01  5.53545129e-01  5.54323696e-01
  5.56740890e-01  5.58656656e-01  5.59775979e-01  5.61894839e-01
  5.63954730e-01  5.66202388e-01  5.68730564e-01  5.69452318e-01
  5.71821186e-01  5.73831345e-01  5.74678742e-01  5.77262788e-01
  5.78826383e-01  5.79961933e-01  5.81570686e-01  5.83968273e-01
  5.84539399e-01  5.85887078e-01  5.89026510e-01  5.91552264e-01
  5.92405341e-01  5.94525830e-01  5.95300259e-01  5.97861125e-01
  6.00189057e-01  6.00947426e-01  6.03404076e-01  6.07849494e-01
  6.09794542e-01  6.12750735e-01  6.15090007e-01  6.16256171e-01
  6.19057789e-01  6.21278392e-01  6.24535425e-01  6.26214090e-01
  6.28571103e-01  6.29404143e-01  6.30103428e-01  6.31246308e-01
  6.34546472e-01  6.35971462e-01  6.36884601e-01  6.37196883e-01
  6.38244486e-01  6.40090063e-01  6.41085138e-01  6.43422694e-01
  6.45993490e-01  6.47480079e-01  6.48508607e-01  6.53059062e-01
  6.54420154e-01  6.55999290e-01  6.57492310e-01  6.60918494e-01
  6.61625515e-01  6.62921252e-01  6.63994404e-01  6.67097485e-01
  6.69410922e-01  6.70638780e-01  6.71440860e-01  6.73830663e-01
  6.76121904e-01  6.76596672e-01  6.78425559e-01  6.80628766e-01
  6.83030492e-01  6.84136453e-01  6.85894554e-01  6.88967690e-01
  6.89873972e-01  6.91635822e-01  6.94688496e-01  6.94856724e-01
  6.97285217e-01  7.00579799e-01  7.01410919e-01  7.04433394e-01
  7.04488690e-01  7.07396895e-01  7.08735832e-01  7.09183369e-01
  7.11998348e-01  7.13401234e-01  7.16369741e-01  7.17027390e-01
  7.20601990e-01  7.21059922e-01  7.22927850e-01  7.26049216e-01
  7.29450488e-01  7.32598018e-01  7.34164340e-01  7.34653494e-01
  7.36251235e-01  7.38232888e-01  7.41160783e-01  7.42523665e-01
  7.43524788e-01  7.44577515e-01  7.45761893e-01  7.48624428e-01
  7.51324340e-01  7.53293576e-01  7.55081329e-01  7.58443031e-01
  7.58564439e-01  7.59389538e-01  7.61546978e-01  7.62245219e-01
  7.66047543e-01  7.66895220e-01  7.68294630e-01  7.70028988e-01
  7.72146953e-01  7.76610646e-01  7.78390392e-01  7.79114349e-01
  7.82337131e-01  7.84182663e-01  7.86427075e-01  7.87910433e-01
  7.89027586e-01  7.91817084e-01  7.93048543e-01  7.95986198e-01
  7.97445392e-01  8.00658634e-01  8.04440910e-01  8.06335687e-01
  8.08343121e-01  8.09153294e-01  8.11064553e-01  8.13892642e-01
  8.15551121e-01  8.16204967e-01  8.20259236e-01  8.23305172e-01
  8.23420961e-01  8.25316069e-01  8.27134669e-01  8.28856812e-01
  8.29904581e-01  8.33911593e-01  8.34255969e-01  8.35815605e-01
  8.39707237e-01  8.41797676e-01  8.43030893e-01  8.45395562e-01
  8.45717091e-01  8.45958698e-01  8.49062217e-01  8.52720227e-01
  8.53400698e-01  8.55149792e-01  8.58972620e-01  8.59330617e-01
  8.60489714e-01  8.61306132e-01  8.62399942e-01  8.65180190e-01
  8.67284150e-01  8.69225994e-01  8.72004728e-01  8.72558043e-01
  8.75598938e-01  8.76521195e-01  8.78991061e-01  8.80237839e-01
  8.83230343e-01  8.84040321e-01  8.86517024e-01  8.88185570e-01
  8.89017145e-01  8.93201651e-01  8.94695036e-01  8.96986593e-01
  8.98093937e-01  8.98624417e-01  8.98994765e-01  9.02747803e-01
  9.03949802e-01  9.06787003e-01  9.07871760e-01  9.09333572e-01
  9.13006516e-01  9.14891763e-01  9.15232137e-01  9.17328325e-01
  9.19302104e-01  9.23635245e-01  9.24475914e-01  9.25363449e-01
  9.30871053e-01  9.31550575e-01  9.32647120e-01  9.35353784e-01
  9.37661957e-01  9.39264055e-01  9.42571300e-01  9.43004686e-01
  9.43612732e-01  9.45028493e-01  9.47157347e-01  9.48254176e-01
  9.51448025e-01  9.53300695e-01  9.54889522e-01  9.55369012e-01
  9.59122772e-01  9.61220320e-01  9.62695616e-01  9.63160310e-01
  9.64844748e-01  9.65522336e-01  9.67159204e-01  9.69374857e-01
  9.72108129e-01  9.72802602e-01  9.74678125e-01  9.76526076e-01
  9.77202295e-01  9.77830224e-01  9.79337752e-01  9.79889837e-01
  9.81511868e-01  9.83212344e-01  9.86086949e-01  9.87244699e-01
  9.89211521e-01  9.92004340e-01  9.93499958e-01  9.97697395e-01
  9.99613892e-01  9.99955828e-01  1.00299051e+00  1.00507565e+00
  1.00586543e+00  1.00759642e+00  1.01016079e+00  1.01096803e+00
  1.01202420e+00  1.01332387e+00  1.01427862e+00  1.01690718e+00
  1.01830385e+00  1.01915265e+00  1.01974385e+00  1.02262020e+00
  1.02313984e+00  1.02431321e+00  1.02843046e+00  1.02939253e+00
  1.03136181e+00  1.03350276e+00  1.03451079e+00  1.03558174e+00
  1.03667668e+00  1.03850370e+00  1.03866139e+00  1.04243439e+00
  1.04403873e+00  1.04752728e+00  1.04864806e+00  1.05024592e+00
  1.05095656e+00  1.05133382e+00  1.05330646e+00  1.05592462e+00
  1.05790676e+00  1.05841753e+00  1.06182370e+00  1.06343651e+00
  1.06454439e+00  1.06996957e+00  1.07141218e+00  1.07193230e+00
  1.07349873e+00  1.07573621e+00  1.07821047e+00  1.07878044e+00
  1.08096663e+00  1.08127068e+00  1.08403574e+00  1.08601902e+00
  1.08740682e+00  1.09197963e+00  1.09376955e+00  1.09643637e+00
  1.09809816e+00  1.10029904e+00  1.10598650e+00  1.10805908e+00
  1.10904542e+00  1.11112680e+00  1.11191753e+00  1.11355127e+00
  1.11675720e+00  1.11853391e+00  1.11872261e+00  1.12015958e+00
  1.12270540e+00  1.12458030e+00  1.12665529e+00  1.12868955e+00
  1.13111307e+00  1.13426541e+00  1.13784222e+00  1.13917108e+00
  1.14013588e+00  1.14170585e+00  1.14269433e+00  1.14502125e+00
  1.14628868e+00  1.14998804e+00  1.15262469e+00  1.15434748e+00
  1.15460088e+00  1.15646916e+00  1.15723561e+00  1.15954051e+00
  1.16065718e+00  1.16386684e+00  1.16530348e+00  1.16694512e+00
  1.16878543e+00  1.17331215e+00  1.17419676e+00  1.17650936e+00
  1.17709408e+00  1.17887013e+00  1.18001892e+00  1.18388391e+00
  1.18583823e+00  1.18862272e+00  1.19074280e+00  1.19279119e+00
  1.19339422e+00  1.19591285e+00  1.19726138e+00  1.19913836e+00
  1.20220088e+00  1.20303313e+00  1.20477745e+00  1.20657796e+00
  1.20973969e+00  1.21183053e+00  1.21520658e+00  1.21581100e+00
  1.21690444e+00  1.21913594e+00  1.22245464e+00  1.22367144e+00
  1.22381008e+00  1.22824577e+00  1.23005207e+00  1.23036170e+00
  1.23181445e+00  1.23343347e+00  1.23753627e+00  1.24108234e+00
  1.24236851e+00  1.24483980e+00  1.24633733e+00  1.24802673e+00
  1.24925899e+00  1.25011242e+00  1.25211501e+00  1.25444796e+00
  1.25624351e+00  1.25761085e+00  1.25972016e+00  1.26111139e+00
  1.26370486e+00  1.26506305e+00  1.26696757e+00  1.26778573e+00
  1.26815573e+00  1.27000492e+00  1.27152432e+00  1.27441594e+00
  1.27472964e+00  1.27692555e+00  1.28056744e+00  1.28151390e+00
  1.28419542e+00  1.28555469e+00  1.28930680e+00  1.29080801e+00
  1.29276360e+00  1.29389965e+00  1.29754143e+00  1.29874667e+00
  1.30126577e+00  1.30397659e+00  1.30424343e+00  1.30565953e+00
  1.30722507e+00  1.30915775e+00  1.31131343e+00  1.31323090e+00
  1.31633966e+00  1.31888492e+00  1.32128267e+00  1.32377771e+00
  1.32457951e+00  1.32812814e+00  1.32917178e+00  1.33444713e+00
  1.33499546e+00  1.33603415e+00  1.33974760e+00  1.34375166e+00
  1.34642707e+00  1.34963801e+00  1.35180755e+00  1.35388975e+00
  1.35698767e+00  1.35832992e+00  1.35897289e+00  1.36194872e+00
  1.36542963e+00  1.36677684e+00  1.36888256e+00  1.37910044e+00
  1.38238745e+00  1.38401812e+00  1.38653849e+00  1.38900430e+00
  1.39087225e+00  1.39202812e+00  1.39665805e+00  1.39821405e+00
  1.39982565e+00  1.40371523e+00  1.40664720e+00  1.40834693e+00
  1.41238385e+00  1.41575879e+00  1.42114235e+00  1.42557413e+00
  1.42652958e+00  1.42876793e+00  1.43017691e+00  1.43443651e+00
  1.43801865e+00  1.44062392e+00  1.44224310e+00  1.44471276e+00
  1.44812600e+00  1.45299525e+00  1.45500247e+00  1.45947192e+00
  1.46295991e+00  1.46823556e+00  1.47255363e+00  1.47386390e+00
  1.47732421e+00  1.47847540e+00  1.48089228e+00  1.48631694e+00
  1.49321749e+00  1.49747652e+00  1.49849775e+00  1.50449903e+00
  1.50821347e+00  1.51100942e+00  1.51444870e+00  1.51817421e+00
  1.52676885e+00  1.52813680e+00  1.53073009e+00  1.53894999e+00
  1.54132608e+00  1.54662155e+00  1.55650332e+00  1.55776152e+00
  1.55935546e+00  1.56812405e+00  1.57098641e+00  1.57231231e+00
  1.57960154e+00  1.58315485e+00  1.58720741e+00  1.58872308e+00
  1.59375546e+00  1.59536116e+00  1.60065485e+00  1.61102675e+00
  1.61307181e+00  1.62796996e+00  1.63142430e+00  1.65282595e+00
  1.66113211e+00  1.66354099e+00  1.66646897e+00  1.67613346e+00
  1.68952270e+00  1.70180931e+00  1.70287755e+00  1.71423680e+00
  1.73215111e+00  1.75869841e+00  1.76628537e+00  1.78288843e+00
  1.80542026e+00  1.83914084e+00  1.85566218e+00  1.90203091e+00
  1.91198046e+00  1.94087877e+00  1.96880919e+00  2.01928819e+00
  2.07044461e+00  2.07234057e+00  2.15685027e+00  2.23639758e+00
  2.28504695e+00  2.34007555e+00  2.40712485e+00  2.42333986e+00
  2.46910388e+00  2.49789066e+00  2.51220789e+00  2.58326143e+00
  2.63489525e+00  2.70456440e+00  2.72071905e+00  2.72585445e+00
  2.76702791e+00  2.82901602e+00  2.85555989e+00  2.86814134e+00
  2.88531700e+00  2.89770973e+00  2.97838039e+00  3.01765047e+00
  3.07795520e+00  3.11348937e+00  3.13721612e+00  3.15317371e+00
  3.18743278e+00  3.19483345e+00  3.20615874e+00  3.24350213e+00
  3.29930172e+00  3.30928525e+00  3.33243643e+00  3.33571433e+00
  3.34293316e+00  3.36027882e+00  3.36213177e+00  3.40177187e+00
  3.41287565e+00  3.41443495e+00  3.42201221e+00  3.45079860e+00
  3.46961592e+00  3.47259548e+00  3.47980011e+00  3.49171286e+00
  3.49569706e+00  3.51287499e+00  3.51940116e+00  3.53640510e+00
  3.53721542e+00  3.55862630e+00  3.56129311e+00  3.57601868e+00
  3.57862468e+00  3.58135835e+00  3.61004624e+00  3.62162626e+00
  3.62883767e+00  3.65549897e+00  3.66623228e+00  3.68236256e+00
  3.68965145e+00  3.69196165e+00  3.69662103e+00  3.71468068e+00
  3.71511239e+00  3.74231540e+00  3.76484589e+00  3.78032062e+00
  3.80581441e+00  3.85745755e+00  3.87284416e+00  3.87631788e+00
  3.89362003e+00  3.91045807e+00  3.93517302e+00  3.96055148e+00
  3.98488713e+00  4.04001334e+00  4.04448477e+00  4.04870013e+00
  4.06550278e+00  4.07480855e+00  4.09653777e+00  4.12724290e+00
  4.13211931e+00  4.15944014e+00  4.18797283e+00  4.25688087e+00
  4.27039225e+00  4.29596666e+00  4.29907020e+00  4.30547695e+00
  4.39615015e+00  4.39914987e+00  4.43393579e+00  4.44538726e+00
  4.51309508e+00  4.53499105e+00  4.53766665e+00  4.55906311e+00
  4.62266959e+00  4.65442534e+00  4.67312653e+00  4.68859958e+00
  4.71227610e+00  4.78900230e+00  4.82700478e+00  4.94260320e+00
  5.01287782e+00  5.03733414e+00  5.07337465e+00  5.12984241e+00
  5.13470961e+00  5.29902270e+00  5.31390880e+00  5.38072851e+00
  5.43203527e+00  5.43584512e+00  5.44705731e+00  5.48051210e+00
  5.51799269e+00  5.51997958e+00  5.58247304e+00  5.65587661e+00
  5.72896013e+00  5.74499790e+00  5.82620378e+00  5.84109415e+00
  5.95329386e+00  5.95727983e+00  6.03024461e+00  6.05980897e+00
  6.10358972e+00  6.11826681e+00  6.15305591e+00  6.16968935e+00
  6.26098306e+00  6.35144823e+00  6.41982645e+00  6.42941921e+00
  6.44078598e+00  6.54358351e+00  6.60526836e+00  6.64625391e+00
  6.69786559e+00  6.78548395e+00  6.83190374e+00  6.87863562e+00
  6.88125327e+00  6.95685266e+00  7.02204932e+00  7.12687735e+00
  7.15452185e+00  7.23103045e+00  7.26521182e+00  7.29306612e+00
  7.31959660e+00  7.37031434e+00  7.43454897e+00  7.45494168e+00
  7.64260773e+00  7.69501105e+00  7.82957140e+00  7.91440566e+00
  8.03426161e+00  8.37750053e+00  1.12962731e+01  1.31330310e+01
  1.33436716e+01  1.41225643e+01  1.59535413e+01  1.75702253e+01]
    CPU time for vj and vk   5224.19 sec, wall time    163.82 sec
E1 = -2743.3329926115994  E_coul = 1188.2008588028866
cycle= 1 E= -563.735606924465  delta_E= 5.51  |g|= 1.04  |ddm|= 14.6
    CPU time for cycle= 1   5227.07 sec, wall time    164.36 sec
diis-norm(errvec)=5.0253
diis-c [-25.25362893   1.        ]
  HOMO = -0.0508678463738881  LUMO = 0.0121867198131535
  mo_energy =
[-2.06110511e+01 -2.06055744e+01 -2.02598023e+01 -1.16815511e+01
 -1.14539223e+01 -1.14511220e+01 -2.45192589e+00 -2.44085893e+00
 -2.44063763e+00 -2.42182519e+00 -2.41157503e+00 -2.41120286e+00
 -2.41018328e+00 -2.40948963e+00 -2.40770179e+00 -2.40355231e+00
 -2.40112648e+00 -2.39270715e+00 -2.39206544e+00 -2.38536008e+00
 -2.37758147e+00 -2.36939757e+00 -2.36916140e+00 -2.35849088e+00
 -2.35549320e+00 -2.35537168e+00 -2.34927674e+00 -2.34681034e+00
 -2.31091112e+00 -2.31031416e+00 -2.25748453e+00 -2.23540604e+00
 -2.23491736e+00 -2.22573905e+00 -2.21064455e+00 -2.20003206e+00
 -1.69602100e+00 -1.51218863e+00 -1.43272418e+00 -1.20553028e+00
 -1.04017828e+00 -9.36628451e-01 -8.80347558e-01 -8.20105654e-01
 -7.89037081e-01 -7.21370674e-01 -7.08631178e-01 -6.38722943e-01
 -6.21343211e-01 -5.99302458e-01 -5.38565582e-01 -4.67115690e-01
 -4.25254401e-01 -2.37568410e-01 -2.19596346e-01 -2.13208730e-01
 -1.86569885e-01 -1.70103092e-01 -1.51908489e-01 -1.28272011e-01
 -1.27343013e-01 -1.11710620e-01 -9.81590136e-02 -9.42895535e-02
 -8.93488180e-02 -6.64990960e-02 -5.46942864e-02 -5.08678464e-02
  1.21867198e-02  1.29692014e-02  1.46443335e-02  1.91272294e-02
  2.05616846e-02  2.28027259e-02  2.40582192e-02  2.87885017e-02
  3.11189191e-02  3.40107454e-02  3.51312230e-02  3.56740575e-02
  3.62271850e-02  4.04776855e-02  4.24435798e-02  4.28900908e-02
  4.46932515e-02  4.89504015e-02  4.96929491e-02  5.02973659e-02
  5.22411049e-02  5.30700215e-02  5.44744920e-02  5.53780829e-02
  5.75243271e-02  6.26983087e-02  6.31648129e-02  6.57388432e-02
  6.74988158e-02  6.97468300e-02  7.00213945e-02  7.10669793e-02
  7.14442565e-02  7.18434531e-02  7.28185555e-02  7.38103829e-02
  7.43407195e-02  7.47108342e-02  7.85433896e-02  8.02605544e-02
  8.24300699e-02  8.37409062e-02  8.41582938e-02  8.49251633e-02
  8.73675918e-02  8.75865883e-02  8.96644696e-02  9.05286600e-02
  9.18008075e-02  9.29872108e-02  9.40627246e-02  9.48201603e-02
  9.74378455e-02  9.95814434e-02  1.00798498e-01  1.01261847e-01
  1.02004118e-01  1.02676871e-01  1.03810430e-01  1.04967491e-01
  1.05043802e-01  1.06436867e-01  1.07808885e-01  1.09756243e-01
  1.11278388e-01  1.12818103e-01  1.13266293e-01  1.13660042e-01
  1.14682347e-01  1.14932890e-01  1.15966301e-01  1.17168376e-01
  1.18537800e-01  1.19383709e-01  1.22208268e-01  1.25142244e-01
  1.25401621e-01  1.26490002e-01  1.27818437e-01  1.28603037e-01
  1.29342328e-01  1.33335169e-01  1.33656234e-01  1.34228953e-01
  1.35828063e-01  1.36134031e-01  1.36565250e-01  1.37045682e-01
  1.40012902e-01  1.40512585e-01  1.41585636e-01  1.44524736e-01
  1.45069324e-01  1.46326619e-01  1.48134034e-01  1.49740168e-01
  1.52004664e-01  1.52859681e-01  1.53348221e-01  1.53927120e-01
  1.56563587e-01  1.57786388e-01  1.58306610e-01  1.58670800e-01
  1.62066073e-01  1.63262584e-01  1.66439274e-01  1.67331509e-01
  1.68707043e-01  1.71073664e-01  1.71851925e-01  1.75302355e-01
  1.77144597e-01  1.78376311e-01  1.79389866e-01  1.82390388e-01
  1.82954273e-01  1.84458792e-01  1.87621320e-01  1.88708184e-01
  1.89828225e-01  1.91822714e-01  1.92337823e-01  1.94744267e-01
  1.96045971e-01  1.97083237e-01  1.98097153e-01  1.99497850e-01
  2.01297778e-01  2.02000211e-01  2.02421361e-01  2.03843059e-01
  2.06686773e-01  2.07246934e-01  2.08708558e-01  2.12285824e-01
  2.15112351e-01  2.15705866e-01  2.17422438e-01  2.18489936e-01
  2.19176901e-01  2.20632599e-01  2.22182795e-01  2.26618077e-01
  2.28477866e-01  2.29612217e-01  2.31017820e-01  2.32664641e-01
  2.34158627e-01  2.35044927e-01  2.36062735e-01  2.37848647e-01
  2.38914831e-01  2.39106278e-01  2.41144939e-01  2.41887906e-01
  2.43029370e-01  2.45870333e-01  2.46490425e-01  2.49089248e-01
  2.49471979e-01  2.50625689e-01  2.52813567e-01  2.54442357e-01
  2.55784479e-01  2.58919935e-01  2.60064764e-01  2.63333425e-01
  2.64614000e-01  2.65359876e-01  2.68255827e-01  2.70419127e-01
  2.74869880e-01  2.77183573e-01  2.79778206e-01  2.82483256e-01
  2.83234111e-01  2.84604858e-01  2.85619124e-01  2.86836054e-01
  2.89765165e-01  2.90499444e-01  2.92004976e-01  2.93484579e-01
  2.94707852e-01  2.97974270e-01  2.99895259e-01  3.00201820e-01
  3.00476405e-01  3.05832981e-01  3.08352929e-01  3.09105677e-01
  3.09728314e-01  3.13245812e-01  3.15380367e-01  3.17627585e-01
  3.20033434e-01  3.20267494e-01  3.25100465e-01  3.26890743e-01
  3.28922142e-01  3.30978377e-01  3.35391637e-01  3.36026212e-01
  3.39962157e-01  3.44642099e-01  3.47050384e-01  3.47430814e-01
  3.48152881e-01  3.49339013e-01  3.52190899e-01  3.54041748e-01
  3.56583646e-01  3.57571901e-01  3.60459000e-01  3.62336319e-01
  3.63706251e-01  3.65811771e-01  3.71790690e-01  3.72054934e-01
  3.73578349e-01  3.75392559e-01  3.76949795e-01  3.77741479e-01
  3.78560604e-01  3.80750456e-01  3.82855189e-01  3.83640942e-01
  3.84103828e-01  3.90408095e-01  3.90925204e-01  3.92464589e-01
  3.94705616e-01  3.97237218e-01  4.00428094e-01  4.02250163e-01
  4.02640769e-01  4.06874343e-01  4.07508055e-01  4.11401964e-01
  4.13070413e-01  4.16487590e-01  4.17189937e-01  4.18047337e-01
  4.19368059e-01  4.21015645e-01  4.22235369e-01  4.22942419e-01
  4.25634053e-01  4.27437939e-01  4.29717348e-01  4.30566401e-01
  4.31048457e-01  4.32383944e-01  4.33839864e-01  4.34184572e-01
  4.35861077e-01  4.38529968e-01  4.39394556e-01  4.40494157e-01
  4.42749337e-01  4.44145975e-01  4.45684512e-01  4.47137094e-01
  4.50465929e-01  4.51307164e-01  4.54034231e-01  4.54555391e-01
  4.56871999e-01  4.58540808e-01  4.62462819e-01  4.62831274e-01
  4.64285538e-01  4.65865465e-01  4.67533546e-01  4.67905867e-01
  4.68263919e-01  4.70290248e-01  4.74309878e-01  4.76777806e-01
  4.77174375e-01  4.77542779e-01  4.79359959e-01  4.81625340e-01
  4.81780644e-01  4.82916295e-01  4.82990270e-01  4.83959041e-01
  4.86612805e-01  4.87705943e-01  4.88496174e-01  4.89938064e-01
  4.91166503e-01  4.91246511e-01  4.92994639e-01  4.95296033e-01
  4.98026519e-01  4.99817927e-01  5.00132014e-01  5.01806263e-01
  5.02438455e-01  5.03119251e-01  5.04642193e-01  5.06651906e-01
  5.07586350e-01  5.09813925e-01  5.10781194e-01  5.11774777e-01
  5.12514015e-01  5.15038290e-01  5.16945831e-01  5.19143833e-01
  5.22125972e-01  5.23229637e-01  5.24865545e-01  5.27137341e-01
  5.28227717e-01  5.31229816e-01  5.32541392e-01  5.33829559e-01
  5.34860712e-01  5.35965620e-01  5.38383214e-01  5.39089590e-01
  5.42703770e-01  5.43894802e-01  5.45146540e-01  5.49361545e-01
  5.49747952e-01  5.53918314e-01  5.54392953e-01  5.59180849e-01
  5.60047524e-01  5.62090757e-01  5.62940604e-01  5.66037887e-01
  5.67739302e-01  5.70164624e-01  5.72086314e-01  5.73258966e-01
  5.76679658e-01  5.77448488e-01  5.78701493e-01  5.80116529e-01
  5.80489666e-01  5.83043587e-01  5.84413166e-01  5.85763456e-01
  5.87145578e-01  5.90416391e-01  5.91235632e-01  5.92535058e-01
  5.96473362e-01  6.00411812e-01  6.01285684e-01  6.02447523e-01
  6.02902026e-01  6.04325342e-01  6.04955428e-01  6.06556631e-01
  6.06695677e-01  6.07394077e-01  6.08222575e-01  6.09906282e-01
  6.12078788e-01  6.12591049e-01  6.13532558e-01  6.14758550e-01
  6.18633504e-01  6.21766388e-01  6.23341129e-01  6.25116785e-01
  6.26466093e-01  6.27588768e-01  6.29620630e-01  6.31129786e-01
  6.33254318e-01  6.33845780e-01  6.34680945e-01  6.38776701e-01
  6.39503453e-01  6.42230292e-01  6.44162282e-01  6.45644106e-01
  6.47081695e-01  6.49109657e-01  6.51553517e-01  6.53432364e-01
  6.56339614e-01  6.57989898e-01  6.58428799e-01  6.61124920e-01
  6.62056502e-01  6.63555402e-01  6.65763603e-01  6.68145196e-01
  6.68530194e-01  6.70622385e-01  6.72230684e-01  6.73356429e-01
  6.74980377e-01  6.81587947e-01  6.82680093e-01  6.83429289e-01
  6.86344256e-01  6.90196272e-01  6.93248756e-01  6.96412885e-01
  6.97523490e-01  6.99321416e-01  7.00191408e-01  7.02336804e-01
  7.04260957e-01  7.07481391e-01  7.09661895e-01  7.13049502e-01
  7.16322737e-01  7.16884413e-01  7.22288273e-01  7.24588836e-01
  7.26183470e-01  7.29515741e-01  7.30765060e-01  7.33599271e-01
  7.36777498e-01  7.39287126e-01  7.43575085e-01  7.46093709e-01
  7.47777641e-01  7.48414146e-01  7.50597068e-01  7.54550312e-01
  7.58814079e-01  7.59787589e-01  7.61335201e-01  7.63203647e-01
  7.64637715e-01  7.67462612e-01  7.68169868e-01  7.69751635e-01
  7.73462068e-01  7.74911413e-01  7.77326305e-01  7.78327907e-01
  7.79431097e-01  7.81453548e-01  7.84978556e-01  7.87445964e-01
  7.88745441e-01  7.90231131e-01  7.93404106e-01  7.94953876e-01
  7.97491615e-01  8.01176797e-01  8.02825460e-01  8.04342196e-01
  8.05196921e-01  8.08138181e-01  8.10907550e-01  8.11564526e-01
  8.13222685e-01  8.14933879e-01  8.16033281e-01  8.21454976e-01
  8.21856409e-01  8.23070362e-01  8.25202681e-01  8.25562378e-01
  8.26446185e-01  8.31087518e-01  8.34499468e-01  8.35086829e-01
  8.36722050e-01  8.38140762e-01  8.40461323e-01  8.43095720e-01
  8.43961459e-01  8.46127630e-01  8.48567271e-01  8.48727310e-01
  8.50867386e-01  8.52241808e-01  8.55182739e-01  8.57192769e-01
  8.60870319e-01  8.61456723e-01  8.64283000e-01  8.65156765e-01
  8.68269068e-01  8.70191415e-01  8.72119745e-01  8.73010367e-01
  8.74063755e-01  8.77141171e-01  8.81952441e-01  8.84373428e-01
  8.85719066e-01  8.86042593e-01  8.88541410e-01  8.89780385e-01
  8.92376982e-01  8.93851214e-01  8.97191436e-01  8.97677893e-01
  8.98794671e-01  9.00123512e-01  9.02784863e-01  9.06128400e-01
  9.08833331e-01  9.09905954e-01  9.11604803e-01  9.13944118e-01
  9.15606982e-01  9.19257876e-01  9.20059148e-01  9.22422131e-01
  9.22835987e-01  9.25757904e-01  9.26488531e-01  9.27771320e-01
  9.30069927e-01  9.31994035e-01  9.33662812e-01  9.36065792e-01
  9.42443429e-01  9.44507599e-01  9.45401666e-01  9.48417297e-01
  9.49081679e-01  9.50655320e-01  9.52718014e-01  9.53939705e-01
  9.54136740e-01  9.57658886e-01  9.58478744e-01  9.59908494e-01
  9.63942574e-01  9.64128077e-01  9.66218812e-01  9.67564501e-01
  9.70328530e-01  9.70638657e-01  9.73221201e-01  9.73362973e-01
  9.74902325e-01  9.77449176e-01  9.78228424e-01  9.80248635e-01
  9.84262983e-01  9.86062800e-01  9.86712835e-01  9.88703011e-01
  9.90871161e-01  9.93785197e-01  9.96313412e-01  9.97183383e-01
  9.98216180e-01  1.00011163e+00  1.00071792e+00  1.00340839e+00
  1.00422145e+00  1.00557624e+00  1.00829535e+00  1.00962227e+00
  1.01159261e+00  1.01572385e+00  1.01640775e+00  1.01702521e+00
  1.01886513e+00  1.02266816e+00  1.02360194e+00  1.02415375e+00
  1.02642247e+00  1.02981369e+00  1.03215136e+00  1.03369378e+00
  1.03610139e+00  1.03744098e+00  1.04022908e+00  1.04095189e+00
  1.04526829e+00  1.04638246e+00  1.05064409e+00  1.05197525e+00
  1.05221972e+00  1.05382846e+00  1.05536838e+00  1.05855892e+00
  1.05889199e+00  1.06086456e+00  1.06210015e+00  1.06249942e+00
  1.06744253e+00  1.06825199e+00  1.06843564e+00  1.07038830e+00
  1.07257584e+00  1.07411027e+00  1.07468437e+00  1.07653633e+00
  1.07770209e+00  1.07924998e+00  1.08384799e+00  1.08468180e+00
  1.08719957e+00  1.08779645e+00  1.08959569e+00  1.09017844e+00
  1.09057017e+00  1.09249370e+00  1.09419020e+00  1.09856521e+00
  1.09911283e+00  1.10127181e+00  1.10238182e+00  1.10298636e+00
  1.10684092e+00  1.10880062e+00  1.10945397e+00  1.11139383e+00
  1.11199609e+00  1.11314393e+00  1.11589063e+00  1.11846176e+00
  1.12050042e+00  1.12243431e+00  1.12512473e+00  1.12602113e+00
  1.12680101e+00  1.12950235e+00  1.13156538e+00  1.13541023e+00
  1.13582864e+00  1.13741465e+00  1.13955676e+00  1.14090641e+00
  1.14423029e+00  1.14737402e+00  1.14799817e+00  1.14878103e+00
  1.15172947e+00  1.15537936e+00  1.15709629e+00  1.15843150e+00
  1.16002580e+00  1.16174492e+00  1.16301739e+00  1.16786823e+00
  1.17065371e+00  1.17135820e+00  1.17394116e+00  1.17475487e+00
  1.17609002e+00  1.17725423e+00  1.17848069e+00  1.18290217e+00
  1.18473913e+00  1.18652342e+00  1.18926208e+00  1.19310906e+00
  1.19383324e+00  1.19448441e+00  1.19523532e+00  1.19612903e+00
  1.19791832e+00  1.20078482e+00  1.20454107e+00  1.20636963e+00
  1.20687715e+00  1.20999663e+00  1.21351460e+00  1.21412480e+00
  1.21518834e+00  1.21785508e+00  1.21941107e+00  1.22137248e+00
  1.22337281e+00  1.22583908e+00  1.22874107e+00  1.23148069e+00
  1.23300918e+00  1.23573509e+00  1.23838675e+00  1.24026588e+00
  1.24246263e+00  1.24404899e+00  1.24677123e+00  1.24784391e+00
  1.24938386e+00  1.25086248e+00  1.25422564e+00  1.25608733e+00
  1.25996823e+00  1.26100355e+00  1.26283013e+00  1.26391510e+00
  1.26455345e+00  1.26763435e+00  1.27010140e+00  1.27231705e+00
  1.27536675e+00  1.27540517e+00  1.27875694e+00  1.28013586e+00
  1.28216801e+00  1.28368794e+00  1.28481136e+00  1.28947882e+00
  1.29022183e+00  1.29356144e+00  1.29676155e+00  1.29856108e+00
  1.29968347e+00  1.30174353e+00  1.30453250e+00  1.30502892e+00
  1.30897246e+00  1.30924952e+00  1.31061360e+00  1.31631837e+00
  1.31689062e+00  1.31951844e+00  1.32080151e+00  1.32262829e+00
  1.32552223e+00  1.32699461e+00  1.32964319e+00  1.33003161e+00
  1.33439600e+00  1.33645014e+00  1.33839366e+00  1.33914660e+00
  1.34153472e+00  1.34393355e+00  1.34450563e+00  1.34544874e+00
  1.34905005e+00  1.34992440e+00  1.35219878e+00  1.35554970e+00
  1.36011664e+00  1.36459542e+00  1.36653087e+00  1.36852971e+00
  1.37217757e+00  1.37447309e+00  1.37607508e+00  1.37711701e+00
  1.37983964e+00  1.38277194e+00  1.38462918e+00  1.38758780e+00
  1.38839406e+00  1.39100759e+00  1.39278182e+00  1.39612182e+00
  1.39819078e+00  1.39971011e+00  1.40105938e+00  1.40406741e+00
  1.40510059e+00  1.40751990e+00  1.40982048e+00  1.41264612e+00
  1.41298459e+00  1.41535001e+00  1.41780927e+00  1.42081198e+00
  1.42519660e+00  1.42903724e+00  1.43060395e+00  1.43317352e+00
  1.43385939e+00  1.43527286e+00  1.43759934e+00  1.43808678e+00
  1.44218191e+00  1.44449754e+00  1.44685598e+00  1.44871669e+00
  1.45036832e+00  1.45155980e+00  1.45350231e+00  1.45653394e+00
  1.46047553e+00  1.46241983e+00  1.46587227e+00  1.46640404e+00
  1.47148978e+00  1.47478146e+00  1.47665232e+00  1.48019910e+00
  1.48398088e+00  1.48623073e+00  1.48739020e+00  1.49254986e+00
  1.49834777e+00  1.50078243e+00  1.50498862e+00  1.50536305e+00
  1.50757449e+00  1.51104655e+00  1.51735678e+00  1.52000345e+00
  1.52386038e+00  1.52605536e+00  1.52684502e+00  1.52843171e+00
  1.53910619e+00  1.54039494e+00  1.54422410e+00  1.54864464e+00
  1.55148620e+00  1.55447649e+00  1.55645815e+00  1.55730635e+00
  1.56006645e+00  1.56338954e+00  1.56670966e+00  1.56733316e+00
  1.57087592e+00  1.57649516e+00  1.58023273e+00  1.58462779e+00
  1.58489402e+00  1.58698575e+00  1.58999269e+00  1.59369597e+00
  1.59618269e+00  1.61060861e+00  1.61269011e+00  1.61512259e+00
  1.61709954e+00  1.62096877e+00  1.62581397e+00  1.62656382e+00
  1.63471735e+00  1.63632540e+00  1.64084789e+00  1.64838063e+00
  1.65265049e+00  1.65442237e+00  1.65956369e+00  1.66588236e+00
  1.67010104e+00  1.67126450e+00  1.67599463e+00  1.67948713e+00
  1.68608228e+00  1.69275584e+00  1.70081166e+00  1.70453709e+00
  1.71133552e+00  1.71250965e+00  1.71834274e+00  1.71957798e+00
  1.72803724e+00  1.73035388e+00  1.73887201e+00  1.74921902e+00
  1.75631165e+00  1.75925460e+00  1.76152993e+00  1.77245247e+00
  1.77336018e+00  1.77791119e+00  1.78503041e+00  1.79015096e+00
  1.79789363e+00  1.79913568e+00  1.80188317e+00  1.80821488e+00
  1.81684381e+00  1.82340747e+00  1.83099249e+00  1.84019649e+00
  1.86828590e+00  1.87526296e+00  1.88433945e+00  1.88806048e+00
  1.89398935e+00  1.90241651e+00  1.91369990e+00  1.92601400e+00
  1.94490956e+00  1.94862234e+00  1.98452941e+00  1.99914691e+00
  2.01085441e+00  2.01554562e+00  2.03814078e+00  2.07453054e+00
  2.13715430e+00  2.17654069e+00  2.23710467e+00  2.26568392e+00
  2.29218317e+00  2.35717807e+00  2.41614635e+00  2.44823640e+00
  2.48920367e+00  2.49211475e+00  2.52108355e+00  2.54606828e+00
  2.59238826e+00  2.64088762e+00  2.67550451e+00  2.69922170e+00
  2.77468438e+00  2.79027175e+00  2.79919465e+00  2.84567367e+00
  2.85411610e+00  2.87782001e+00  2.96032288e+00  2.98641204e+00
  3.01867780e+00  3.06983817e+00  3.08052585e+00  3.13262311e+00
  3.13743454e+00  3.16003396e+00  3.17060851e+00  3.24420929e+00
  3.25521768e+00  3.27395311e+00  3.27778511e+00  3.28630329e+00
  3.30195871e+00  3.33074199e+00  3.38933671e+00  3.39749832e+00
  3.41026667e+00  3.41951674e+00  3.43154535e+00  3.43730413e+00
  3.46933280e+00  3.48713669e+00  3.48994860e+00  3.51585029e+00
  3.53780233e+00  3.54857688e+00  3.56087988e+00  3.56800017e+00
  3.58212542e+00  3.60467288e+00  3.61104194e+00  3.63694178e+00
  3.64550802e+00  3.66272044e+00  3.66387570e+00  3.67643619e+00
  3.68292060e+00  3.70014079e+00  3.72826745e+00  3.73187726e+00
  3.73592380e+00  3.76007958e+00  3.77662950e+00  3.78373657e+00
  3.78609343e+00  3.81833621e+00  3.81899619e+00  3.82697432e+00
  3.83911783e+00  3.84901918e+00  3.86705156e+00  3.86824542e+00
  3.90634694e+00  3.92574517e+00  3.93836173e+00  3.98898271e+00
  4.01762274e+00  4.02918017e+00  4.04805325e+00  4.05773649e+00
  4.07089683e+00  4.08970823e+00  4.13289118e+00  4.22214496e+00
  4.25366500e+00  4.26701674e+00  4.27975232e+00  4.29672158e+00
  4.36184250e+00  4.37060563e+00  4.37795770e+00  4.39065929e+00
  4.39569547e+00  4.41431594e+00  4.47144139e+00  4.47255456e+00
  4.48905450e+00  4.49042180e+00  4.55600725e+00  4.61948288e+00
  4.64345446e+00  4.65850884e+00  4.78172733e+00  4.81213367e+00
  4.83807006e+00  4.86482689e+00  4.93025588e+00  4.96565343e+00
  4.98110117e+00  5.02322194e+00  5.05902211e+00  5.11915774e+00
  5.20801526e+00  5.29548427e+00  5.30430282e+00  5.35761150e+00
  5.40298937e+00  5.48827622e+00  5.49071606e+00  5.49478438e+00
  5.61550579e+00  5.67882926e+00  5.68907117e+00  5.73305359e+00
  5.74960194e+00  5.76882860e+00  5.81847080e+00  5.92065565e+00
  5.96399587e+00  5.99169956e+00  6.05481035e+00  6.07464213e+00
  6.10613939e+00  6.15899199e+00  6.19297775e+00  6.23877820e+00
  6.25792324e+00  6.37294537e+00  6.41880564e+00  6.44718167e+00
  6.49358162e+00  6.59459025e+00  6.63287778e+00  6.75740351e+00
  6.83900853e+00  6.86626046e+00  6.92129890e+00  7.10654313e+00
  7.13381022e+00  7.16163903e+00  7.21206751e+00  7.23364627e+00
  7.26864396e+00  7.30571005e+00  7.37833128e+00  7.38374814e+00
  7.44898664e+00  7.54992330e+00  7.61593261e+00  7.67440806e+00
  7.77781366e+00  7.79854651e+00  8.06522396e+00  8.09856418e+00
  8.14492454e+00  8.49837236e+00  1.13498457e+01  1.31889241e+01
  1.34068486e+01  1.41159051e+01  1.58624540e+01  1.76190599e+01]
    CPU time for vj and vk   5181.12 sec, wall time    162.39 sec
E1 = -2724.826111062376  E_coul = 1169.7316281951737
cycle= 2 E= -563.697955982955  delta_E= 0.0377  |g|= 0.868  |ddm|= 14.3
    CPU time for cycle= 2   5184.66 sec, wall time    162.88 sec
diis-norm(errvec)=6.19218
diis-c [-3.07992777  0.55773267  0.44226733]
  HOMO = -0.126665881022883  LUMO = -0.027040702305706
  mo_energy =
[-2.06486057e+01 -2.06468204e+01 -2.05616299e+01 -1.15438875e+01
 -1.13651494e+01 -1.13641323e+01 -2.46586436e+00 -2.46541110e+00
 -2.45984677e+00 -2.45727130e+00 -2.45723765e+00 -2.45683608e+00
 -2.45497038e+00 -2.45480001e+00 -2.45421987e+00 -2.45019596e+00
 -2.44684055e+00 -2.44664377e+00 -2.44616043e+00 -2.44598826e+00
 -2.44444513e+00 -2.44442876e+00 -2.44430709e+00 -2.44204917e+00
 -2.43654870e+00 -2.43620966e+00 -2.43605473e+00 -2.43551025e+00
 -2.43496439e+00 -2.43443025e+00 -2.43024947e+00 -2.42869883e+00
 -2.41809051e+00 -2.41532821e+00 -2.41413268e+00 -2.41403536e+00
 -1.67264321e+00 -1.50990995e+00 -1.49807399e+00 -1.17014778e+00
 -1.01839056e+00 -9.24376391e-01 -8.61443059e-01 -8.24886264e-01
 -7.77456242e-01 -7.36441137e-01 -7.11997675e-01 -7.04093703e-01
 -6.27902645e-01 -6.12479924e-01 -5.53008575e-01 -5.42175581e-01
 -5.28422087e-01 -3.38572519e-01 -2.93614962e-01 -2.93111961e-01
 -2.54669768e-01 -2.42947138e-01 -2.19576210e-01 -2.11662316e-01
 -1.96153468e-01 -1.94895789e-01 -1.60855121e-01 -1.57240259e-01
 -1.48476732e-01 -1.43667745e-01 -1.26918563e-01 -1.26665881e-01
 -2.70407023e-02 -1.81792701e-02 -1.77700128e-02 -1.52013583e-02
 -8.87746084e-03 -7.67781701e-03 -3.41547610e-03  5.72045179e-04
  4.09423286e-03  6.40675901e-03  7.15988761e-03  8.71701806e-03
  1.43707433e-02  1.52051898e-02  2.01027602e-02  2.44108209e-02
  2.71244278e-02  2.85842043e-02  3.23250607e-02  3.50779536e-02
  3.66360978e-02  3.76495379e-02  4.15980574e-02  4.28830094e-02
  4.36337248e-02  4.61581196e-02  4.79100894e-02  5.19013356e-02
  5.23636313e-02  5.31131144e-02  5.42891737e-02  5.52324474e-02
  5.61203714e-02  5.79534451e-02  5.84641712e-02  5.88390135e-02
  6.11086990e-02  6.32669785e-02  6.35552493e-02  6.51361967e-02
  6.58539895e-02  6.74233379e-02  6.76132449e-02  6.94682656e-02
  7.03082247e-02  7.26137509e-02  7.28079346e-02  7.50870865e-02
  7.64775832e-02  7.81771041e-02  7.90549651e-02  8.12466713e-02
  8.29212784e-02  8.37357563e-02  8.46215567e-02  8.54967717e-02
  8.70034537e-02  8.88305726e-02  9.14956337e-02  9.32147634e-02
  9.45052437e-02  9.46741739e-02  9.58016478e-02  9.79526558e-02
  9.84572828e-02  9.87373478e-02  9.92024209e-02  1.00298580e-01
  1.00713688e-01  1.01689339e-01  1.02985134e-01  1.03199063e-01
  1.05203069e-01  1.06389343e-01  1.07951256e-01  1.09633309e-01
  1.11203662e-01  1.11972657e-01  1.12855767e-01  1.13784656e-01
  1.17110702e-01  1.17615414e-01  1.20625863e-01  1.22825984e-01
  1.25073605e-01  1.25586044e-01  1.25647326e-01  1.26590921e-01
  1.27555765e-01  1.28107890e-01  1.29031959e-01  1.29344116e-01
  1.30548792e-01  1.31780692e-01  1.35922543e-01  1.37026279e-01
  1.38099344e-01  1.38387805e-01  1.40216820e-01  1.40590487e-01
  1.41270919e-01  1.43121735e-01  1.43893337e-01  1.44172752e-01
  1.45223272e-01  1.45507632e-01  1.48457889e-01  1.48993721e-01
  1.51203790e-01  1.51908072e-01  1.53793641e-01  1.54798512e-01
  1.56370028e-01  1.56564476e-01  1.57572810e-01  1.58759928e-01
  1.59721980e-01  1.60847155e-01  1.63055337e-01  1.66907681e-01
  1.67937255e-01  1.68002512e-01  1.69915421e-01  1.70383190e-01
  1.72174207e-01  1.74227093e-01  1.75751174e-01  1.76851858e-01
  1.78504067e-01  1.79822014e-01  1.81767708e-01  1.82265863e-01
  1.84162732e-01  1.85102727e-01  1.85781407e-01  1.87284558e-01
  1.90291660e-01  1.91283345e-01  1.92707765e-01  1.95481509e-01
  1.96075523e-01  1.97010329e-01  1.97082887e-01  2.03523035e-01
  2.04975384e-01  2.06378254e-01  2.09416051e-01  2.10232776e-01
  2.11681278e-01  2.12255645e-01  2.12565866e-01  2.14832971e-01
  2.15910459e-01  2.16650463e-01  2.19086816e-01  2.20022149e-01
  2.20602460e-01  2.22705369e-01  2.23125833e-01  2.23600957e-01
  2.25797654e-01  2.25950674e-01  2.27250980e-01  2.27929105e-01
  2.29264345e-01  2.30576698e-01  2.31478563e-01  2.32532148e-01
  2.33291725e-01  2.34803100e-01  2.37375062e-01  2.39649616e-01
  2.40903555e-01  2.42576017e-01  2.43565821e-01  2.45104927e-01
  2.45852534e-01  2.47614841e-01  2.48789329e-01  2.53275255e-01
  2.53692874e-01  2.54629277e-01  2.57638859e-01  2.59342084e-01
  2.62129698e-01  2.63848404e-01  2.64863345e-01  2.66275561e-01
  2.68146715e-01  2.68552857e-01  2.73662566e-01  2.75532395e-01
  2.76858424e-01  2.77873839e-01  2.83005233e-01  2.84669119e-01
  2.87226403e-01  2.90359927e-01  2.93722088e-01  2.95344543e-01
  2.96564130e-01  2.97219233e-01  2.99983090e-01  3.01681863e-01
  3.02388626e-01  3.03848688e-01  3.06020485e-01  3.07746099e-01
  3.10674892e-01  3.12846200e-01  3.14378854e-01  3.15482760e-01
  3.18141445e-01  3.19068918e-01  3.19827125e-01  3.21940874e-01
  3.22589181e-01  3.28172071e-01  3.28666290e-01  3.31608223e-01
  3.32849641e-01  3.35672898e-01  3.37608684e-01  3.38676830e-01
  3.40325100e-01  3.42740314e-01  3.44257973e-01  3.45092327e-01
  3.49527743e-01  3.50501658e-01  3.51604884e-01  3.53065401e-01
  3.55590045e-01  3.55764021e-01  3.55996781e-01  3.59891749e-01
  3.61901755e-01  3.65555146e-01  3.67392044e-01  3.69851423e-01
  3.71805752e-01  3.73398331e-01  3.75156595e-01  3.77299489e-01
  3.79676474e-01  3.80712233e-01  3.82729771e-01  3.84250598e-01
  3.86860744e-01  3.88388919e-01  3.88571528e-01  3.90192760e-01
  3.90832766e-01  3.92610444e-01  3.92722806e-01  3.95178194e-01
  3.97909134e-01  4.00752198e-01  4.01548912e-01  4.03570411e-01
  4.05007548e-01  4.06084018e-01  4.08415819e-01  4.08884275e-01
  4.11025281e-01  4.12588112e-01  4.13333761e-01  4.17204835e-01
  4.17958070e-01  4.20764245e-01  4.22822943e-01  4.24390008e-01
  4.25120734e-01  4.27457588e-01  4.27905613e-01  4.29538919e-01
  4.31177502e-01  4.34077218e-01  4.35689890e-01  4.37776999e-01
  4.39472808e-01  4.40154317e-01  4.40872475e-01  4.43123601e-01
  4.44595116e-01  4.45082792e-01  4.46386849e-01  4.47940888e-01
  4.48633958e-01  4.49149752e-01  4.52070807e-01  4.52965475e-01
  4.55667725e-01  4.56869659e-01  4.57766657e-01  4.59871317e-01
  4.60776709e-01  4.62946132e-01  4.64236355e-01  4.64888821e-01
  4.67112713e-01  4.67699686e-01  4.69195565e-01  4.70123643e-01
  4.71023280e-01  4.71438996e-01  4.72556899e-01  4.74877672e-01
  4.76212125e-01  4.76683495e-01  4.77563781e-01  4.79076191e-01
  4.82077954e-01  4.82596290e-01  4.82894196e-01  4.86472654e-01
  4.87769095e-01  4.89116498e-01  4.90571311e-01  4.91494806e-01
  4.93446067e-01  4.96240500e-01  4.97311526e-01  4.97588821e-01
  5.02940051e-01  5.04034443e-01  5.05958359e-01  5.06420387e-01
  5.08376546e-01  5.09311492e-01  5.10797806e-01  5.11789216e-01
  5.15085314e-01  5.16045521e-01  5.16654976e-01  5.18614703e-01
  5.19241655e-01  5.19633502e-01  5.22995934e-01  5.23678009e-01
  5.24145638e-01  5.26601643e-01  5.27178597e-01  5.27976621e-01
  5.30073525e-01  5.31022925e-01  5.35424520e-01  5.36373572e-01
  5.37893237e-01  5.40571137e-01  5.41673459e-01  5.43067374e-01
  5.44493053e-01  5.45589311e-01  5.47430023e-01  5.50141422e-01
  5.50665513e-01  5.51395302e-01  5.52278771e-01  5.55402368e-01
  5.56526567e-01  5.56866923e-01  5.57932976e-01  5.61480493e-01
  5.62639471e-01  5.63892255e-01  5.66605815e-01  5.69044065e-01
  5.70814440e-01  5.72232333e-01  5.74406993e-01  5.76365942e-01
  5.81776819e-01  5.82385999e-01  5.83924731e-01  5.85920264e-01
  5.86552253e-01  5.89271211e-01  5.90171004e-01  5.93153985e-01
  5.96673179e-01  5.98029210e-01  5.98843121e-01  6.00042145e-01
  6.04690586e-01  6.06509644e-01  6.06702302e-01  6.09069226e-01
  6.10356694e-01  6.12390921e-01  6.13428823e-01  6.16891007e-01
  6.18186651e-01  6.20277297e-01  6.21185972e-01  6.24373532e-01
  6.24994244e-01  6.28232577e-01  6.29074858e-01  6.32160570e-01
  6.33557933e-01  6.35950340e-01  6.36524347e-01  6.39201049e-01
  6.41535351e-01  6.42036682e-01  6.42881712e-01  6.49217431e-01
  6.53491289e-01  6.55444775e-01  6.57472711e-01  6.61363982e-01
  6.62245089e-01  6.64212117e-01  6.65095314e-01  6.67497056e-01
  6.68714439e-01  6.71969438e-01  6.73785261e-01  6.75467077e-01
  6.78240699e-01  6.79898377e-01  6.81663941e-01  6.84094359e-01
  6.85970734e-01  6.89204366e-01  6.89560070e-01  6.90978778e-01
  6.92077648e-01  6.94478640e-01  6.97051670e-01  6.98806415e-01
  6.99773234e-01  7.02594720e-01  7.07094462e-01  7.08033952e-01
  7.11461920e-01  7.12233718e-01  7.12892625e-01  7.14697740e-01
  7.15867672e-01  7.19894224e-01  7.21291901e-01  7.22093344e-01
  7.24385321e-01  7.24550725e-01  7.26172779e-01  7.29890669e-01
  7.31528341e-01  7.32557927e-01  7.35131997e-01  7.36457407e-01
  7.38064868e-01  7.41722180e-01  7.46141262e-01  7.46499171e-01
  7.46986843e-01  7.50500540e-01  7.51727913e-01  7.54410692e-01
  7.56301121e-01  7.56907324e-01  7.57552241e-01  7.58605434e-01
  7.60700903e-01  7.65208452e-01  7.66606345e-01  7.68989274e-01
  7.71336737e-01  7.73818034e-01  7.75125542e-01  7.75554327e-01
  7.81157779e-01  7.82704177e-01  7.83203660e-01  7.85392617e-01
  7.86124823e-01  7.86936449e-01  7.87915025e-01  7.90661150e-01
  7.91645629e-01  7.94100347e-01  7.95722240e-01  7.97113993e-01
  8.01920716e-01  8.03672534e-01  8.06049057e-01  8.06667221e-01
  8.10692222e-01  8.12118617e-01  8.13293720e-01  8.14532778e-01
  8.16550617e-01  8.17419841e-01  8.19587358e-01  8.22447577e-01
  8.24857024e-01  8.25932067e-01  8.28206894e-01  8.30683343e-01
  8.32309934e-01  8.32961286e-01  8.35483895e-01  8.37786133e-01
  8.38510773e-01  8.43031564e-01  8.46737342e-01  8.49063349e-01
  8.50273020e-01  8.52351770e-01  8.54483069e-01  8.57995877e-01
  8.58637062e-01  8.61189566e-01  8.61822640e-01  8.63440465e-01
  8.67824754e-01  8.71321291e-01  8.72454397e-01  8.74253075e-01
  8.76492112e-01  8.78539887e-01  8.79715094e-01  8.81232937e-01
  8.83289095e-01  8.84594260e-01  8.87367911e-01  8.88396421e-01
  8.91772450e-01  8.93231892e-01  8.94078447e-01  8.94956819e-01
  8.97574257e-01  8.98313781e-01  9.02377201e-01  9.02609591e-01
  9.05246192e-01  9.06249521e-01  9.06642134e-01  9.08238647e-01
  9.10249774e-01  9.14940621e-01  9.15041499e-01  9.17318918e-01
  9.19578964e-01  9.22663180e-01  9.23638629e-01  9.27135815e-01
  9.27781099e-01  9.28714023e-01  9.29425382e-01  9.31582401e-01
[...]
  5.76814491e+00  5.77740463e+00  5.86128605e+00  5.89461294e+00
  5.99925151e+00  6.00987209e+00  6.10459347e+00  6.12898972e+00
  6.13555153e+00  6.15580296e+00  6.21689068e+00  6.22260207e+00
  6.30292576e+00  6.40413429e+00  6.46013459e+00  6.48058163e+00
  6.50502506e+00  6.60777074e+00  6.66134882e+00  6.73815662e+00
  6.81917090e+00  6.87862128e+00  6.91629835e+00  6.99405137e+00
  7.02150504e+00  7.05823783e+00  7.12811706e+00  7.22631997e+00
  7.24514047e+00  7.31725638e+00  7.36224158e+00  7.38219450e+00
  7.44356016e+00  7.49366670e+00  7.54180577e+00  7.55058423e+00
  7.76991242e+00  7.77876377e+00  7.96036902e+00  8.02634115e+00
  8.11906824e+00  8.46806226e+00  1.13519937e+01  1.31989832e+01
  1.34171520e+01  1.41599914e+01  1.59692947e+01  1.76169942e+01]
    CPU time for vj and vk   3043.69 sec, wall time     95.38 sec
E1 = -2738.0692717951965  E_coul = 1182.5961061020623
cycle= 32 E= -564.076638808887  delta_E= -1.58e-10  |g|= 7.46e-06  |ddm|= 0.000127
    CPU time for cycle= 32   3046.56 sec, wall time     96.38 sec
  HOMO = -0.116045158935047  LUMO = -0.00783978292386051
  mo_energy =
[-2.06489930e+01 -2.06489267e+01 -2.05816516e+01 -1.14519756e+01
 -1.13122458e+01 -1.13111984e+01 -2.44372139e+00 -2.44333266e+00
 -2.43747948e+00 -2.43727933e+00 -2.43671734e+00 -2.43430777e+00
 -2.43267439e+00 -2.43243221e+00 -2.43083287e+00 -2.43077391e+00
 -2.43043147e+00 -2.43038570e+00 -2.43029312e+00 -2.42990534e+00
 -2.42923725e+00 -2.42904959e+00 -2.42893940e+00 -2.42890251e+00
 -2.42770053e+00 -2.42642897e+00 -2.42338533e+00 -2.42328449e+00
 -2.41482525e+00 -2.41461959e+00 -2.40401532e+00 -2.39286718e+00
 -2.39141508e+00 -2.39113695e+00 -2.38749806e+00 -2.38719482e+00
 -1.64024275e+00 -1.48814104e+00 -1.47326339e+00 -1.13325497e+00
 -9.87703883e-01 -9.00247056e-01 -8.34571855e-01 -8.07830388e-01
 -7.52097512e-01 -7.24008593e-01 -6.87107357e-01 -6.82227884e-01
 -6.14570445e-01 -5.88334763e-01 -5.44346334e-01 -5.29120310e-01
 -5.08572933e-01 -3.14520914e-01 -2.75340796e-01 -2.74353870e-01
 -2.34223797e-01 -2.29872070e-01 -2.05384160e-01 -1.97343217e-01
 -1.83142918e-01 -1.81569528e-01 -1.50642406e-01 -1.50019773e-01
 -1.40943503e-01 -1.34102466e-01 -1.19325296e-01 -1.16045159e-01
 -7.83978292e-03 -3.50282275e-03 -2.21398335e-03  2.09109740e-03
  5.38127854e-03  5.90512960e-03  6.97726409e-03  1.05735225e-02
  1.40154491e-02  1.71985699e-02  1.87407111e-02  2.01290702e-02
  2.39246003e-02  2.47889785e-02  2.67792247e-02  3.02495930e-02
  3.23405472e-02  3.68666276e-02  3.97369673e-02  4.06423391e-02
  4.15327893e-02  4.41199710e-02  4.59613716e-02  4.66812801e-02
  4.89907124e-02  5.16809282e-02  5.52381933e-02  5.65210568e-02
  5.69829841e-02  5.89580434e-02  5.93481225e-02  6.07184049e-02
  6.10072741e-02  6.11107502e-02  6.29151974e-02  6.32735848e-02
  6.46355329e-02  6.83355600e-02  6.84674217e-02  6.93476052e-02
  6.94349983e-02  6.99890281e-02  7.35698906e-02  7.38308740e-02
  7.40375694e-02  7.61424647e-02  7.86443839e-02  8.02344966e-02
  8.08864570e-02  8.29825363e-02  8.51977373e-02  8.54937998e-02
  8.62833451e-02  8.74906670e-02  9.05117852e-02  9.11198954e-02
  9.15691084e-02  9.33222375e-02  9.52897356e-02  9.60979193e-02
  9.79356293e-02  9.84277649e-02  9.91281464e-02  9.99931712e-02
  1.00877498e-01  1.01363168e-01  1.01555789e-01  1.02670228e-01
  1.05175859e-01  1.05689875e-01  1.06809433e-01  1.07662065e-01
  1.09348840e-01  1.11426210e-01  1.12955221e-01  1.13791124e-01
  1.15106989e-01  1.15965685e-01  1.16160176e-01  1.22569614e-01
  1.23073616e-01  1.24974127e-01  1.25627313e-01  1.26193932e-01
  1.27171969e-01  1.28048199e-01  1.28145206e-01  1.30374194e-01
  1.30665630e-01  1.31617731e-01  1.32109717e-01  1.32555875e-01
  1.34049344e-01  1.35721972e-01  1.37495490e-01  1.39134102e-01
  1.41897072e-01  1.42347870e-01  1.45136342e-01  1.46515370e-01
  1.46851361e-01  1.49659160e-01  1.50126626e-01  1.50256978e-01
  1.51550835e-01  1.52956912e-01  1.53473942e-01  1.54487365e-01
  1.54737526e-01  1.55939180e-01  1.57362038e-01  1.60479960e-01
  1.62326106e-01  1.62882517e-01  1.64532489e-01  1.65214103e-01
  1.68595968e-01  1.68717712e-01  1.69369950e-01  1.74101851e-01
  1.74403182e-01  1.75019050e-01  1.75569509e-01  1.77244141e-01
  1.81099394e-01  1.81846948e-01  1.83099752e-01  1.83736536e-01
  1.86956054e-01  1.87809854e-01  1.88806646e-01  1.91502418e-01
  1.92539061e-01  1.93188026e-01  1.93774267e-01  1.96898739e-01
  1.97585773e-01  2.02130159e-01  2.03283345e-01  2.03412778e-01
  2.04967428e-01  2.08198511e-01  2.08359345e-01  2.12498184e-01
  2.13671551e-01  2.14944647e-01  2.17709929e-01  2.18786932e-01
  2.19238603e-01  2.19532741e-01  2.21831797e-01  2.22977899e-01
  2.23850762e-01  2.25437401e-01  2.26131985e-01  2.27859436e-01
  2.28714600e-01  2.29992314e-01  2.30178303e-01  2.31554658e-01
  2.32965855e-01  2.34705800e-01  2.35307018e-01  2.36222235e-01
  2.38445853e-01  2.39707634e-01  2.40223607e-01  2.41067343e-01
  2.41453399e-01  2.44352692e-01  2.46462754e-01  2.48098388e-01
  2.49194948e-01  2.51506423e-01  2.54579764e-01  2.56436411e-01
  2.56932710e-01  2.57778062e-01  2.58644848e-01  2.62218736e-01
  2.63841338e-01  2.64323093e-01  2.68001611e-01  2.68936909e-01
  2.71041702e-01  2.72184237e-01  2.75191706e-01  2.75779851e-01
  2.77431562e-01  2.78451421e-01  2.83855252e-01  2.85761892e-01
  2.86431425e-01  2.88255252e-01  2.92192767e-01  2.94334548e-01
  2.96452782e-01  3.00820932e-01  3.02843044e-01  3.05382098e-01
  3.07606061e-01  3.08921876e-01  3.09643682e-01  3.12970210e-01
  3.13570179e-01  3.14151342e-01  3.16804136e-01  3.17150274e-01
  3.21431901e-01  3.25152365e-01  3.26262750e-01  3.28212481e-01
  3.29234071e-01  3.29899025e-01  3.30673540e-01  3.33943055e-01
  3.35376339e-01  3.39621827e-01  3.42167659e-01  3.43218867e-01
  3.45053485e-01  3.47562468e-01  3.49496102e-01  3.50588550e-01
  3.51132103e-01  3.53603752e-01  3.56281027e-01  3.57962513e-01
  3.59617124e-01  3.62801341e-01  3.63641338e-01  3.64131917e-01
  3.65755131e-01  3.66588083e-01  3.68972305e-01  3.69941089e-01
  3.73449536e-01  3.76263266e-01  3.81592899e-01  3.82100733e-01
  3.84884156e-01  3.85526575e-01  3.86242103e-01  3.87745539e-01
  3.89838301e-01  3.90404523e-01  3.92622630e-01  3.94994382e-01
  3.96939656e-01  3.98313900e-01  3.99122011e-01  4.00916947e-01
  4.01682099e-01  4.04078882e-01  4.04414069e-01  4.08906860e-01
  4.10184283e-01  4.10998180e-01  4.12721841e-01  4.13925951e-01
  4.16271067e-01  4.17122540e-01  4.18040012e-01  4.20548918e-01
  4.22156426e-01  4.23045678e-01  4.26116590e-01  4.26504242e-01
  4.28671874e-01  4.32933342e-01  4.34210738e-01  4.34527538e-01
  4.36528119e-01  4.37145447e-01  4.39370750e-01  4.40178723e-01
  4.42670611e-01  4.43980931e-01  4.46737734e-01  4.47550741e-01
  4.49957631e-01  4.50817789e-01  4.51827930e-01  4.52855292e-01
  4.55370147e-01  4.56553210e-01  4.57978551e-01  4.58199952e-01
  4.58814299e-01  4.61764454e-01  4.62418651e-01  4.62986182e-01
  4.65787952e-01  4.67988308e-01  4.69764366e-01  4.70839156e-01
  4.71691692e-01  4.72733774e-01  4.73964930e-01  4.76485654e-01
  4.78133990e-01  4.79007487e-01  4.79639938e-01  4.80783166e-01
  4.81117095e-01  4.82807689e-01  4.83857247e-01  4.85618584e-01
  4.86892065e-01  4.87157930e-01  4.89139314e-01  4.91077650e-01
  4.91928746e-01  4.93169528e-01  4.94677902e-01  4.98018318e-01
  4.98786862e-01  5.01534986e-01  5.02023435e-01  5.02767359e-01
  5.03780211e-01  5.07706609e-01  5.09256361e-01  5.10201007e-01
  5.11986193e-01  5.14641674e-01  5.18674957e-01  5.18841674e-01
  5.20018450e-01  5.21356351e-01  5.22452590e-01  5.25031182e-01
  5.26080871e-01  5.27271080e-01  5.28295336e-01  5.32116700e-01
  5.32625798e-01  5.32997676e-01  5.34464015e-01  5.36488286e-01
  5.37678014e-01  5.39203242e-01  5.40726074e-01  5.40840954e-01
  5.42607803e-01  5.43929336e-01  5.46904277e-01  5.47155480e-01
  5.50145179e-01  5.52472153e-01  5.53899180e-01  5.56641318e-01
  5.57505095e-01  5.58050640e-01  5.59447396e-01  5.60540323e-01
  5.63714369e-01  5.65497046e-01  5.66647217e-01  5.68652815e-01
  5.69175242e-01  5.71199973e-01  5.73084849e-01  5.74162081e-01
  5.75504720e-01  5.77223365e-01  5.79745237e-01  5.80799317e-01
  5.83212326e-01  5.84004389e-01  5.86590193e-01  5.90449486e-01
  5.93867811e-01  5.96090123e-01  5.97436954e-01  5.97773712e-01
  5.99389891e-01  6.00838834e-01  6.04933664e-01  6.05958524e-01
  6.08237470e-01  6.09540849e-01  6.12183138e-01  6.13116294e-01
  6.16008152e-01  6.17958425e-01  6.19374734e-01  6.21713133e-01
  6.22489491e-01  6.24785777e-01  6.26194372e-01  6.29223318e-01
  6.30191477e-01  6.31301142e-01  6.33244974e-01  6.36331125e-01
  6.38604808e-01  6.39828105e-01  6.42860270e-01  6.45749153e-01
  6.46708442e-01  6.49096288e-01  6.49748143e-01  6.51576993e-01
  6.55456653e-01  6.56683965e-01  6.59093288e-01  6.62398970e-01
  6.66984084e-01  6.68464275e-01  6.70028214e-01  6.72649481e-01
  6.75994586e-01  6.79168536e-01  6.81206023e-01  6.82409638e-01
  6.83967224e-01  6.86746113e-01  6.87599463e-01  6.89011332e-01
  6.93942883e-01  6.95059239e-01  6.97575290e-01  7.00512720e-01
  7.02067666e-01  7.05203950e-01  7.06882814e-01  7.07109967e-01
  7.09673500e-01  7.10736077e-01  7.13182890e-01  7.14639717e-01
  7.15277073e-01  7.18724444e-01  7.21940574e-01  7.24174112e-01
  7.26361995e-01  7.28381548e-01  7.29207799e-01  7.29638201e-01
  7.31923005e-01  7.35991223e-01  7.36678362e-01  7.38180991e-01
  7.38559970e-01  7.40087025e-01  7.43311310e-01  7.45897730e-01
  7.47247112e-01  7.48640516e-01  7.51252192e-01  7.52075545e-01
  7.53045390e-01  7.59378871e-01  7.61994453e-01  7.63240734e-01
  7.63565524e-01  7.65608387e-01  7.68742194e-01  7.70314291e-01
  7.72024624e-01  7.73148357e-01  7.74018263e-01  7.75508187e-01
  7.77460451e-01  7.80669529e-01  7.82510465e-01  7.84103413e-01
  7.87607760e-01  7.90193101e-01  7.91365561e-01  7.91985940e-01
  7.96522993e-01  7.97591101e-01  7.98691948e-01  8.00525736e-01
  8.01989368e-01  8.03537462e-01  8.03772361e-01  8.06746270e-01
  8.08193933e-01  8.09103223e-01  8.11349487e-01  8.12074532e-01
  8.17188672e-01  8.18643412e-01  8.21954812e-01  8.22882145e-01
  8.26728815e-01  8.28029740e-01  8.29178687e-01  8.30995293e-01
  8.32483201e-01  8.34814777e-01  8.35947428e-01  8.38155717e-01
  8.40380375e-01  8.41290145e-01  8.43678143e-01  8.46768381e-01
  8.47426234e-01  8.49014744e-01  8.50635272e-01  8.53306445e-01
  8.53880135e-01  8.58507808e-01  8.61480166e-01  8.63767262e-01
  8.65644774e-01  8.67645232e-01  8.70281110e-01  8.72487254e-01
  8.73070704e-01  8.75729949e-01  8.77602786e-01  8.78463361e-01
  8.83221438e-01  8.86317550e-01  8.87768510e-01  8.90541145e-01
  8.91790469e-01  8.93278612e-01  8.94928763e-01  8.96892209e-01
  8.98728483e-01  8.99881277e-01  9.02725145e-01  9.03449465e-01
  9.05958192e-01  9.08373405e-01  9.08536220e-01  9.10426400e-01
  9.12504627e-01  9.13078898e-01  9.17023049e-01  9.17241006e-01
  9.20509821e-01  9.21338769e-01  9.21953670e-01  9.23993749e-01
  9.25932780e-01  9.29883337e-01  9.31652563e-01  9.32425139e-01
  9.35456938e-01  9.38214353e-01  9.39175531e-01  9.41603475e-01
  9.42704059e-01  9.43990921e-01  9.46012201e-01  9.47461179e-01
  9.48740050e-01  9.50249146e-01  9.52067648e-01  9.53813010e-01
  9.54707919e-01  9.56594050e-01  9.59541689e-01  9.60230559e-01
  9.61408524e-01  9.63841122e-01  9.66239898e-01  9.67203854e-01
  9.74015646e-01  9.74932773e-01  9.75859584e-01  9.77650894e-01
  9.79598814e-01  9.81236669e-01  9.82567713e-01  9.83423926e-01
  9.86994619e-01  9.89012284e-01  9.89247777e-01  9.93046799e-01
  9.94669314e-01  9.98051954e-01  9.99225236e-01  1.00328606e+00
  1.00409305e+00  1.00701596e+00  1.00797185e+00  1.00881241e+00
  1.01032176e+00  1.01253761e+00  1.01334370e+00  1.01527147e+00
  1.01553989e+00  1.01849011e+00  1.01873263e+00  1.02179021e+00
  1.02212107e+00  1.02327320e+00  1.02522151e+00  1.02690315e+00
  1.02828515e+00  1.02869302e+00  1.03086776e+00  1.03181036e+00
  1.03538120e+00  1.03641450e+00  1.03734165e+00  1.03905334e+00
  1.03997661e+00  1.04208224e+00  1.04428248e+00  1.04634286e+00
  1.04733665e+00  1.04867619e+00  1.04939942e+00  1.05317328e+00
  1.05650009e+00  1.05761543e+00  1.05852842e+00  1.05967388e+00
  1.06242997e+00  1.06489336e+00  1.06611651e+00  1.06805165e+00
  1.07121792e+00  1.07226213e+00  1.07264071e+00  1.07397013e+00
  1.07557243e+00  1.07859028e+00  1.07981332e+00  1.08018155e+00
  1.08211156e+00  1.08426365e+00  1.08497811e+00  1.08860835e+00
  1.08978854e+00  1.09112452e+00  1.09263744e+00  1.09404833e+00
  1.09574755e+00  1.09775732e+00  1.09924880e+00  1.09970855e+00
  1.10156219e+00  1.10377641e+00  1.10754207e+00  1.10970353e+00
  1.11164953e+00  1.11228411e+00  1.11526623e+00  1.11659372e+00
  1.11736458e+00  1.11960627e+00  1.12145005e+00  1.12411949e+00
  1.12497448e+00  1.12906930e+00  1.13098466e+00  1.13330407e+00
  1.13437736e+00  1.13636323e+00  1.13803779e+00  1.13938914e+00
  1.14179811e+00  1.14276952e+00  1.14448009e+00  1.14859662e+00
  1.14924208e+00  1.15447817e+00  1.15587164e+00  1.15610434e+00
  1.16227884e+00  1.16348457e+00  1.16452966e+00  1.16553750e+00
  1.17084726e+00  1.17314070e+00  1.17429068e+00  1.17495603e+00
  1.17859301e+00  1.18235193e+00  1.18442298e+00  1.18518502e+00
  1.18550247e+00  1.18806303e+00  1.18937573e+00  1.19348185e+00
  1.19446781e+00  1.19956806e+00  1.20092054e+00  1.20361395e+00
  1.20452630e+00  1.20511289e+00  1.20649445e+00  1.20753229e+00
  1.20839779e+00  1.21224208e+00  1.21433963e+00  1.21580011e+00
  1.21812891e+00  1.21919484e+00  1.22151645e+00  1.22227412e+00
  1.22279785e+00  1.22466488e+00  1.22579938e+00  1.23107324e+00
  1.23274815e+00  1.23344662e+00  1.23623760e+00  1.23870535e+00
  1.24126346e+00  1.24253484e+00  1.24446465e+00  1.24755588e+00
  1.24930938e+00  1.25039619e+00  1.25257391e+00  1.25431343e+00
  1.25705126e+00  1.25827618e+00  1.26130115e+00  1.26415290e+00
  1.26536446e+00  1.26675842e+00  1.26818590e+00  1.27235768e+00
  1.27456064e+00  1.27632232e+00  1.27834845e+00  1.28009065e+00
  1.28229367e+00  1.28434054e+00  1.28520043e+00  1.28837044e+00
  1.29044148e+00  1.29130610e+00  1.29379684e+00  1.29701513e+00
  1.29942438e+00  1.30322166e+00  1.30550527e+00  1.30642431e+00
  1.30874432e+00  1.30915970e+00  1.31256205e+00  1.31362202e+00
  1.31451611e+00  1.31762539e+00  1.31975951e+00  1.32258586e+00
  1.32352880e+00  1.32418229e+00  1.32583284e+00  1.32668092e+00
  1.32902065e+00  1.33079886e+00  1.33197955e+00  1.33532576e+00
  1.33842303e+00  1.33884551e+00  1.34106998e+00  1.34250731e+00
  1.34317580e+00  1.34484156e+00  1.34729172e+00  1.34929833e+00
  1.35106501e+00  1.35346656e+00  1.35675792e+00  1.35947702e+00
  1.36293495e+00  1.36567122e+00  1.36703592e+00  1.36845946e+00
  1.37024618e+00  1.37148254e+00  1.37297748e+00  1.37430580e+00
  1.37834111e+00  1.38031967e+00  1.38168644e+00  1.38509869e+00
  1.38603153e+00  1.38908629e+00  1.38909112e+00  1.39328469e+00
  1.39389181e+00  1.39639377e+00  1.39817981e+00  1.40197151e+00
  1.40364988e+00  1.40420386e+00  1.40843721e+00  1.41130406e+00
  1.41614992e+00  1.42239933e+00  1.42409487e+00  1.42511361e+00
  1.42758172e+00  1.43019219e+00  1.43328256e+00  1.43695645e+00
  1.43814961e+00  1.44236705e+00  1.44523250e+00  1.44995523e+00
  1.45309710e+00  1.45887368e+00  1.45968936e+00  1.46156092e+00
  1.46515840e+00  1.46982328e+00  1.47140324e+00  1.47314416e+00
  1.47386672e+00  1.47851357e+00  1.48075018e+00  1.48394307e+00
  1.48489976e+00  1.48718706e+00  1.48920455e+00  1.49605568e+00
  1.49953363e+00  1.50279068e+00  1.50567029e+00  1.50920827e+00
  1.50985567e+00  1.51207042e+00  1.51731985e+00  1.52230685e+00
  1.52612450e+00  1.52882003e+00  1.53069595e+00  1.53614412e+00
  1.54088046e+00  1.54275255e+00  1.54668717e+00  1.54753970e+00
  1.55265265e+00  1.55660655e+00  1.56067222e+00  1.56517968e+00
  1.56807568e+00  1.57016029e+00  1.57344120e+00  1.57889909e+00
  1.58554116e+00  1.58770074e+00  1.59467940e+00  1.59690037e+00
  1.60014566e+00  1.61089784e+00  1.61208556e+00  1.61559690e+00
  1.61929194e+00  1.62831872e+00  1.63198492e+00  1.63329723e+00
  1.64684419e+00  1.64992751e+00  1.65476391e+00  1.66224255e+00
  1.66386423e+00  1.66690361e+00  1.67075552e+00  1.67839743e+00
  1.68200954e+00  1.68665633e+00  1.69072357e+00  1.69813861e+00
  1.69908099e+00  1.70452076e+00  1.70856702e+00  1.71083802e+00
  1.71582096e+00  1.72401577e+00  1.75760237e+00  1.75950960e+00
  1.76787061e+00  1.77332567e+00  1.77857517e+00  1.79760731e+00
  1.81531464e+00  1.83016918e+00  1.83505520e+00  1.85916372e+00
  1.86255147e+00  1.89293267e+00  1.91046596e+00  1.94202985e+00
  1.95766535e+00  1.99086720e+00  2.00945596e+00  2.02944700e+00
  2.08901555e+00  2.14420184e+00  2.18501650e+00  2.27416199e+00
  2.30790932e+00  2.37071423e+00  2.43760044e+00  2.45840397e+00
  2.49613573e+00  2.52590972e+00  2.53814295e+00  2.57257364e+00
  2.64159743e+00  2.70161947e+00  2.72193097e+00  2.73602489e+00
  2.80738594e+00  2.83439056e+00  2.84685052e+00  2.89041981e+00
  2.89297795e+00  2.91730946e+00  2.99795612e+00  3.02446748e+00
  3.08384316e+00  3.12668931e+00  3.14089922e+00  3.16144707e+00
  3.19447707e+00  3.21714367e+00  3.24048748e+00  3.25088276e+00
  3.30970818e+00  3.31100399e+00  3.33893865e+00  3.34884598e+00
  3.36236263e+00  3.38978753e+00  3.39648593e+00  3.40282230e+00
  3.43551136e+00  3.45815303e+00  3.46710728e+00  3.46874634e+00
  3.48552117e+00  3.48809209e+00  3.52712509e+00  3.52788708e+00
  3.54078243e+00  3.54411407e+00  3.55482980e+00  3.56784989e+00
  3.57605247e+00  3.59372171e+00  3.61645040e+00  3.62671663e+00
  3.63685217e+00  3.63869328e+00  3.64241749e+00  3.67407485e+00
  3.68499672e+00  3.68886795e+00  3.71136578e+00  3.71918649e+00
  3.72516672e+00  3.73054334e+00  3.75791918e+00  3.77357641e+00
  3.77862137e+00  3.79275589e+00  3.79830909e+00  3.81021253e+00
  3.82408331e+00  3.86793037e+00  3.87041979e+00  3.91035058e+00
  3.94407554e+00  3.96428774e+00  3.97145346e+00  3.97945258e+00
  3.98544398e+00  4.04075624e+00  4.05806937e+00  4.07044973e+00
  4.08994668e+00  4.11153446e+00  4.16620021e+00  4.17641897e+00
  4.22351002e+00  4.24994322e+00  4.26480596e+00  4.29602508e+00
  4.30374316e+00  4.32008893e+00  4.32413534e+00  4.38986196e+00
  4.40402313e+00  4.41978057e+00  4.44146836e+00  4.45661148e+00
  4.52357689e+00  4.53106420e+00  4.53640453e+00  4.64555961e+00
  4.67084855e+00  4.69755017e+00  4.71884540e+00  4.75706548e+00
  4.79745425e+00  4.84245148e+00  4.85274707e+00  4.95843764e+00
  5.03110927e+00  5.06730773e+00  5.10269490e+00  5.15480984e+00
  5.20299521e+00  5.33972467e+00  5.34360017e+00  5.41245408e+00
  5.45190461e+00  5.51292545e+00  5.51377331e+00  5.54488982e+00
  5.59039224e+00  5.61675733e+00  5.62778800e+00  5.69807927e+00
  5.76814481e+00  5.77740459e+00  5.86128615e+00  5.89461268e+00
  5.99925183e+00  6.00987173e+00  6.10459367e+00  6.12898891e+00
  6.13555153e+00  6.15580316e+00  6.21689071e+00  6.22260231e+00
  6.30292582e+00  6.40413469e+00  6.46013493e+00  6.48058183e+00
  6.50502540e+00  6.60777089e+00  6.66134909e+00  6.73815639e+00
  6.81917034e+00  6.87862145e+00  6.91629838e+00  6.99405004e+00
  7.02150330e+00  7.05823715e+00  7.12811641e+00  7.22632029e+00
  7.24514081e+00  7.31725693e+00  7.36224221e+00  7.38219540e+00
  7.44356057e+00  7.49366512e+00  7.54180655e+00  7.55058370e+00
  7.76991234e+00  7.77876454e+00  7.96036802e+00  8.02634106e+00
  8.11906882e+00  8.46806172e+00  1.13519938e+01  1.31989830e+01
  1.34171532e+01  1.41599913e+01  1.59692947e+01  1.76169932e+01]
    CPU time for vj and vk   3037.04 sec, wall time     95.18 sec
E1 = -2738.069416933297  E_coul = 1182.5962512399572
Extra cycle  E= -564.076638809092  delta_E= -2.06e-10  |g|= 7.4e-06  |ddm|= 0.000116
    CPU time for scf_cycle 142590.11 sec, wall time   4482.58 sec
    CPU time for SCF 142590.16 sec, wall time   4482.58 sec
converged SCF energy = -564.076638809092
