#INFO: **** input file is /burg/ccce/users/eav2136/projects/batteries/01_mp2/hf_script.py ****
#!/usr/bin/env python3
from pyscf import gto, scf, mp
import sys
from fileutils import dump
import h5py

mol = gto.Mole()
mol.verbose = 10
mol.atom = f"geom_{sys.argv[1]}.xyz"
mol.basis = "ccpvtz"
mol.unit = "ANG"
mol.build()

mf = scf.RHF(mol)
# determine the output of mf.kernel()
mf.kernel()

conv = mf.converged
e_tot = mf.e_tot
mo_energy = mf.mo_energy
mo_coeff = mf.mo_coeff

dataout = {}
dataout["e_tot"] = e_tot
dataout["conv"] = conv
dump(dataout, f"data/hf_geom_{sys.argv[1]}.json")

with h5py.File(f"data/hf_geom_{sys.argv[1]}.h5", "w") as f:
    f.create_dataset("mo_energy", data=mo_energy)
    f.create_dataset("mo_coeff", data=mo_coeff)#INFO: ******************** input file end ********************


System: uname_result(system='Linux', node='g103', release='4.18.0-193.el8.x86_64', version='#1 SMP Fri Mar 27 14:35:58 UTC 2020', machine='x86_64')  Threads 32
Python 3.10.12 (main, Jul 29 2023, 11:27:27) [GCC 13.2.0]
numpy 1.25.1  scipy 1.10.1
Date: Fri Jan 19 11:33:30 2024
PySCF version 2.0.1
PySCF path  /burg/berkelbach/users/eav2136/builds/pyscf/projected-cvs/pyscf
GIT ORIG_HEAD 0bfbc692adf3ea63b8a509210433219cd1c472a2
GIT HEAD (branch projected-cvs) e14caaa2dddc538b9be2d86f01e5b456fc92da36

[ENV] PYSCF_TMPDIR /burg/ccce/users/eav2136/projects/batteries/01_mp2/tmp
[ENV] PYSCF_MAX_MEMORY 700000
[CONFIG] DEBUG = False
[CONFIG] MAX_MEMORY = 700000
[CONFIG] TMPDIR = /burg/ccce/users/eav2136/projects/batteries/01_mp2/tmp
[CONFIG] UNIT = angstrom
[CONFIG] VERBOSE = 3
[CONFIG] conf_file = None
[INPUT] verbose = 10
[INPUT] max_memory = 700000 
[INPUT] num. atoms = 26
[INPUT] num. electrons = 94
[INPUT] charge = 0
[INPUT] spin (= nelec alpha-beta = 2S) = 0
[INPUT] symmetry False subgroup None
[INPUT] Mole.unit = ANG
[INPUT]  1 C      4.889700000000   4.599650000000  10.258310000000 AA    9.240193831286   8.692078768856  19.385396400887 Bohr
[INPUT]  2 O      4.870170000000   4.245790000000   8.952570000000 AA    9.203287480073   8.023380282417  16.917905410997 Bohr
[INPUT]  3 C      5.310840000000   5.193710000000   8.233300000000 AA   10.036033091385   9.814689470415  15.558682101382 Bohr
[INPUT]  4 O      5.765780000000   6.111200000000   8.982240000000 AA   10.895745094495  11.548494292442  16.973973585113 Bohr
[INPUT]  5 C      5.774150000000   5.702340000000  10.272330000000 AA   10.911562102157  10.775860869152  19.411890361153 Bohr
[INPUT]  6 O      5.299720000000   5.216150000000   7.112960000000 AA   10.015019336880   9.857094924650  13.441546334986 Bohr
[INPUT]  7 H      5.212360000000   3.798320000000  10.814180000000 AA    9.849932862638   7.177784533458  20.435838461749 Bohr
[INPUT]  8 H      3.953110000000   4.871240000000  10.548100000000 AA    7.470295240279   9.205309487026  19.933020134525 Bohr
[INPUT]  9 H      5.464720000000   6.479910000000  10.867980000000 AA   10.326824147433  12.245255211830  20.537505727251 Bohr
[INPUT] 10 H      6.716790000000   5.418990000000  10.529430000000 AA   12.692893536217  10.240406971757  19.897738947779 Bohr
[INPUT] 11 Li     5.263950000000   5.263950000000   5.263950000000 AA    9.947423833404   9.947423833404   9.947423833404 Bohr
[INPUT] 12 Li     5.263950000000   1.754650000000   5.263950000000 AA    9.947423833404   3.315807944468   9.947423833404 Bohr
[INPUT] 13 Li     8.773250000000   5.263950000000   5.263950000000 AA   16.579039722340   9.947423833404   9.947423833404 Bohr
[INPUT] 14 Li     1.754650000000   5.263950000000   5.263950000000 AA    3.315807944468   9.947423833404   9.947423833404 Bohr
[INPUT] 15 Li     5.263950000000   8.773250000000   5.263950000000 AA    9.947423833404  16.579039722340   9.947423833404 Bohr
[INPUT] 16 Li     7.018600000000   3.509300000000   3.509300000000 AA   13.263231777872   6.631615888936   6.631615888936 Bohr
[INPUT] 17 Li     3.509300000000   3.509300000000   3.509300000000 AA    6.631615888936   6.631615888936   6.631615888936 Bohr
[INPUT] 18 Li     7.018600000000   7.018600000000   3.509300000000 AA   13.263231777872  13.263231777872   6.631615888936 Bohr
[INPUT] 19 Li     3.509300000000   7.018600000000   3.509300000000 AA    6.631615888936  13.263231777872   6.631615888936 Bohr
[INPUT] 20 Li     8.773250000000   1.754650000000   5.263950000000 AA   16.579039722340   3.315807944468   9.947423833404 Bohr
[INPUT] 21 Li     1.754650000000   1.754650000000   5.263950000000 AA    3.315807944468   3.315807944468   9.947423833404 Bohr
[INPUT] 22 Li     8.773250000000   8.773250000000   5.263950000000 AA   16.579039722340  16.579039722340   9.947423833404 Bohr
[INPUT] 23 Li     1.754650000000   8.773250000000   5.263950000000 AA    3.315807944468  16.579039722340   9.947423833404 Bohr
[INPUT] 24 Li     5.263950000000   5.263950000000   1.754650000000 AA    9.947423833404   9.947423833404   3.315807944468 Bohr
[INPUT] 25 Li     5.263950000000   1.754650000000   1.754650000000 AA    9.947423833404   3.315807944468   3.315807944468 Bohr
[INPUT] 26 Li     8.773250000000   5.263950000000   1.754650000000 AA   16.579039722340   9.947423833404   3.315807944468 Bohr
[INPUT] ---------------- BASIS SET ---------------- 
[INPUT] l, kappa, [nprim/nctr], expnt,             c_1 c_2 ...
[INPUT] H
[INPUT] 0    0    [3    /1   ]  33.87             0.006068
                                5.095             0.045308
                                1.159             0.202822
[INPUT] 0    0    [1    /1   ]  0.3258               1
[INPUT] 0    0    [1    /1   ]  0.1027               1
[INPUT] 1    0    [1    /1   ]  1.407                1
[INPUT] 1    0    [1    /1   ]  0.388                1
[INPUT] 2    0    [1    /1   ]  1.057                1
[INPUT] C
[INPUT] 0    0    [8    /2   ]  8236              0.000531 -0.000113
                                1235              0.004108 -0.000878
                                280.8             0.021087 -0.00454
                                79.27             0.081853 -0.018133
                                25.59             0.234817 -0.05576
                                8.997             0.434401 -0.126895
                                3.319             0.346129 -0.170352
                                0.3643            -0.008983 0.598684
[INPUT] 0    0    [1    /1   ]  0.9059               1
[INPUT] 0    0    [1    /1   ]  0.1285               1
[INPUT] 1    0    [3    /1   ]  18.71             0.014031
                                4.133             0.086866
                                1.2               0.290216
[INPUT] 1    0    [1    /1   ]  0.3827               1
[INPUT] 1    0    [1    /1   ]  0.1209               1
[INPUT] 2    0    [1    /1   ]  1.097                1
[INPUT] 2    0    [1    /1   ]  0.318                1
[INPUT] 3    0    [1    /1   ]  0.761                1
[INPUT] O
[INPUT] 0    0    [8    /2   ]  15330             0.000508 -0.000115
                                2299              0.003929 -0.000895
                                522.4             0.020243 -0.004636
                                147.3             0.079181 -0.018724
                                47.55             0.230687 -0.058463
                                16.76             0.433118 -0.136463
                                6.207             0.35026 -0.17574
                                0.6882            -0.008154 0.603418
[INPUT] 0    0    [1    /1   ]  1.752                1
[INPUT] 0    0    [1    /1   ]  0.2384               1
[INPUT] 1    0    [3    /1   ]  34.46             0.015928
                                7.749             0.09974
                                2.28              0.310492
[INPUT] 1    0    [1    /1   ]  0.7156               1
[INPUT] 1    0    [1    /1   ]  0.214                1
[INPUT] 2    0    [1    /1   ]  2.314                1
[INPUT] 2    0    [1    /1   ]  0.645                1
[INPUT] 3    0    [1    /1   ]  1.428                1
[INPUT] Li
[INPUT] 0    0    [9    /2   ]  5988              0.000133 -2.1e-05
                                898.9             0.001025 -0.000161
                                205.9             0.005272 -0.00082
                                59.24             0.020929 -0.003326
                                19.87             0.06634 -0.010519
                                7.406             0.165775 -0.028097
                                2.93              0.315038 -0.055936
                                1.189             0.393523 -0.099237
                                0.4798            0.19087 -0.112189
[INPUT] 0    0    [1    /1   ]  0.07509              1
[INPUT] 0    0    [1    /1   ]  0.02832              1
[INPUT] 1    0    [3    /1   ]  3.266             0.00863
                                0.6511            0.047538
                                0.1696            0.209772
[INPUT] 1    0    [1    /1   ]  0.05578              1
[INPUT] 1    0    [1    /1   ]  0.0205               1
[INPUT] 2    0    [1    /1   ]  0.1874               1
[INPUT] 2    0    [1    /1   ]  0.0801               1
[INPUT] 3    0    [1    /1   ]  0.1829               1

nuclear repulsion = 590.88781704517
number of shells = 222
number of NR pGTOs = 1004
number of NR cGTOs = 716
basis = ccpvtz
ecp = {}
bas 0, expnt(s) = [8.236e+03 1.235e+03 2.808e+02 7.927e+01 2.559e+01 8.997e+00 3.319e+00
 3.643e-01]
bas 1, expnt(s) = [0.9059]
bas 2, expnt(s) = [0.1285]
bas 3, expnt(s) = [18.71   4.133  1.2  ]
bas 4, expnt(s) = [0.3827]
bas 5, expnt(s) = [0.1209]
bas 6, expnt(s) = [1.097]
bas 7, expnt(s) = [0.318]
bas 8, expnt(s) = [0.761]
bas 9, expnt(s) = [1.533e+04 2.299e+03 5.224e+02 1.473e+02 4.755e+01 1.676e+01 6.207e+00
 6.882e-01]
bas 10, expnt(s) = [1.752]
bas 11, expnt(s) = [0.2384]
bas 12, expnt(s) = [34.46   7.749  2.28 ]
bas 13, expnt(s) = [0.7156]
bas 14, expnt(s) = [0.214]
bas 15, expnt(s) = [2.314]
bas 16, expnt(s) = [0.645]
bas 17, expnt(s) = [1.428]
bas 18, expnt(s) = [8.236e+03 1.235e+03 2.808e+02 7.927e+01 2.559e+01 8.997e+00 3.319e+00
 3.643e-01]
bas 19, expnt(s) = [0.9059]
bas 20, expnt(s) = [0.1285]
bas 21, expnt(s) = [18.71   4.133  1.2  ]
bas 22, expnt(s) = [0.3827]
bas 23, expnt(s) = [0.1209]
bas 24, expnt(s) = [1.097]
bas 25, expnt(s) = [0.318]
bas 26, expnt(s) = [0.761]
bas 27, expnt(s) = [1.533e+04 2.299e+03 5.224e+02 1.473e+02 4.755e+01 1.676e+01 6.207e+00
 6.882e-01]
bas 28, expnt(s) = [1.752]
bas 29, expnt(s) = [0.2384]
bas 30, expnt(s) = [34.46   7.749  2.28 ]
bas 31, expnt(s) = [0.7156]
bas 32, expnt(s) = [0.214]
bas 33, expnt(s) = [2.314]
bas 34, expnt(s) = [0.645]
bas 35, expnt(s) = [1.428]
bas 36, expnt(s) = [8.236e+03 1.235e+03 2.808e+02 7.927e+01 2.559e+01 8.997e+00 3.319e+00
 3.643e-01]
bas 37, expnt(s) = [0.9059]
bas 38, expnt(s) = [0.1285]
bas 39, expnt(s) = [18.71   4.133  1.2  ]
bas 40, expnt(s) = [0.3827]
bas 41, expnt(s) = [0.1209]
bas 42, expnt(s) = [1.097]
bas 43, expnt(s) = [0.318]
bas 44, expnt(s) = [0.761]
bas 45, expnt(s) = [1.533e+04 2.299e+03 5.224e+02 1.473e+02 4.755e+01 1.676e+01 6.207e+00
 6.882e-01]
bas 46, expnt(s) = [1.752]
bas 47, expnt(s) = [0.2384]
bas 48, expnt(s) = [34.46   7.749  2.28 ]
bas 49, expnt(s) = [0.7156]
bas 50, expnt(s) = [0.214]
bas 51, expnt(s) = [2.314]
bas 52, expnt(s) = [0.645]
bas 53, expnt(s) = [1.428]
bas 54, expnt(s) = [33.87   5.095  1.159]
bas 55, expnt(s) = [0.3258]
bas 56, expnt(s) = [0.1027]
bas 57, expnt(s) = [1.407]
bas 58, expnt(s) = [0.388]
bas 59, expnt(s) = [1.057]
bas 60, expnt(s) = [33.87   5.095  1.159]
bas 61, expnt(s) = [0.3258]
bas 62, expnt(s) = [0.1027]
bas 63, expnt(s) = [1.407]
bas 64, expnt(s) = [0.388]
bas 65, expnt(s) = [1.057]
bas 66, expnt(s) = [33.87   5.095  1.159]
bas 67, expnt(s) = [0.3258]
bas 68, expnt(s) = [0.1027]
bas 69, expnt(s) = [1.407]
bas 70, expnt(s) = [0.388]
bas 71, expnt(s) = [1.057]
bas 72, expnt(s) = [33.87   5.095  1.159]
bas 73, expnt(s) = [0.3258]
bas 74, expnt(s) = [0.1027]
bas 75, expnt(s) = [1.407]
bas 76, expnt(s) = [0.388]
bas 77, expnt(s) = [1.057]
bas 78, expnt(s) = [5.988e+03 8.989e+02 2.059e+02 5.924e+01 1.987e+01 7.406e+00 2.930e+00
 1.189e+00 4.798e-01]
bas 79, expnt(s) = [0.07509]
bas 80, expnt(s) = [0.02832]
bas 81, expnt(s) = [3.266  0.6511 0.1696]
bas 82, expnt(s) = [0.05578]
bas 83, expnt(s) = [0.0205]
bas 84, expnt(s) = [0.1874]
bas 85, expnt(s) = [0.0801]
bas 86, expnt(s) = [0.1829]
bas 87, expnt(s) = [5.988e+03 8.989e+02 2.059e+02 5.924e+01 1.987e+01 7.406e+00 2.930e+00
 1.189e+00 4.798e-01]
bas 88, expnt(s) = [0.07509]
bas 89, expnt(s) = [0.02832]
bas 90, expnt(s) = [3.266  0.6511 0.1696]
bas 91, expnt(s) = [0.05578]
bas 92, expnt(s) = [0.0205]
bas 93, expnt(s) = [0.1874]
bas 94, expnt(s) = [0.0801]
bas 95, expnt(s) = [0.1829]
bas 96, expnt(s) = [5.988e+03 8.989e+02 2.059e+02 5.924e+01 1.987e+01 7.406e+00 2.930e+00
 1.189e+00 4.798e-01]
bas 97, expnt(s) = [0.07509]
bas 98, expnt(s) = [0.02832]
bas 99, expnt(s) = [3.266  0.6511 0.1696]
bas 100, expnt(s) = [0.05578]
bas 101, expnt(s) = [0.0205]
bas 102, expnt(s) = [0.1874]
bas 103, expnt(s) = [0.0801]
bas 104, expnt(s) = [0.1829]
bas 105, expnt(s) = [5.988e+03 8.989e+02 2.059e+02 5.924e+01 1.987e+01 7.406e+00 2.930e+00
 1.189e+00 4.798e-01]
bas 106, expnt(s) = [0.07509]
bas 107, expnt(s) = [0.02832]
bas 108, expnt(s) = [3.266  0.6511 0.1696]
bas 109, expnt(s) = [0.05578]
bas 110, expnt(s) = [0.0205]
bas 111, expnt(s) = [0.1874]
bas 112, expnt(s) = [0.0801]
bas 113, expnt(s) = [0.1829]
bas 114, expnt(s) = [5.988e+03 8.989e+02 2.059e+02 5.924e+01 1.987e+01 7.406e+00 2.930e+00
 1.189e+00 4.798e-01]
bas 115, expnt(s) = [0.07509]
bas 116, expnt(s) = [0.02832]
bas 117, expnt(s) = [3.266  0.6511 0.1696]
bas 118, expnt(s) = [0.05578]
bas 119, expnt(s) = [0.0205]
bas 120, expnt(s) = [0.1874]
bas 121, expnt(s) = [0.0801]
bas 122, expnt(s) = [0.1829]
bas 123, expnt(s) = [5.988e+03 8.989e+02 2.059e+02 5.924e+01 1.987e+01 7.406e+00 2.930e+00
 1.189e+00 4.798e-01]
bas 124, expnt(s) = [0.07509]
bas 125, expnt(s) = [0.02832]
bas 126, expnt(s) = [3.266  0.6511 0.1696]
bas 127, expnt(s) = [0.05578]
bas 128, expnt(s) = [0.0205]
bas 129, expnt(s) = [0.1874]
bas 130, expnt(s) = [0.0801]
bas 131, expnt(s) = [0.1829]
bas 132, expnt(s) = [5.988e+03 8.989e+02 2.059e+02 5.924e+01 1.987e+01 7.406e+00 2.930e+00
 1.189e+00 4.798e-01]
bas 133, expnt(s) = [0.07509]
bas 134, expnt(s) = [0.02832]
bas 135, expnt(s) = [3.266  0.6511 0.1696]
bas 136, expnt(s) = [0.05578]
bas 137, expnt(s) = [0.0205]
bas 138, expnt(s) = [0.1874]
bas 139, expnt(s) = [0.0801]
bas 140, expnt(s) = [0.1829]
bas 141, expnt(s) = [5.988e+03 8.989e+02 2.059e+02 5.924e+01 1.987e+01 7.406e+00 2.930e+00
 1.189e+00 4.798e-01]
bas 142, expnt(s) = [0.07509]
bas 143, expnt(s) = [0.02832]
bas 144, expnt(s) = [3.266  0.6511 0.1696]
bas 145, expnt(s) = [0.05578]
bas 146, expnt(s) = [0.0205]
bas 147, expnt(s) = [0.1874]
bas 148, expnt(s) = [0.0801]
bas 149, expnt(s) = [0.1829]
bas 150, expnt(s) = [5.988e+03 8.989e+02 2.059e+02 5.924e+01 1.987e+01 7.406e+00 2.930e+00
 1.189e+00 4.798e-01]
bas 151, expnt(s) = [0.07509]
bas 152, expnt(s) = [0.02832]
bas 153, expnt(s) = [3.266  0.6511 0.1696]
bas 154, expnt(s) = [0.05578]
bas 155, expnt(s) = [0.0205]
bas 156, expnt(s) = [0.1874]
bas 157, expnt(s) = [0.0801]
bas 158, expnt(s) = [0.1829]
bas 159, expnt(s) = [5.988e+03 8.989e+02 2.059e+02 5.924e+01 1.987e+01 7.406e+00 2.930e+00
 1.189e+00 4.798e-01]
bas 160, expnt(s) = [0.07509]
bas 161, expnt(s) = [0.02832]
bas 162, expnt(s) = [3.266  0.6511 0.1696]
bas 163, expnt(s) = [0.05578]
bas 164, expnt(s) = [0.0205]
bas 165, expnt(s) = [0.1874]
bas 166, expnt(s) = [0.0801]
bas 167, expnt(s) = [0.1829]
bas 168, expnt(s) = [5.988e+03 8.989e+02 2.059e+02 5.924e+01 1.987e+01 7.406e+00 2.930e+00
 1.189e+00 4.798e-01]
bas 169, expnt(s) = [0.07509]
bas 170, expnt(s) = [0.02832]
bas 171, expnt(s) = [3.266  0.6511 0.1696]
bas 172, expnt(s) = [0.05578]
bas 173, expnt(s) = [0.0205]
bas 174, expnt(s) = [0.1874]
bas 175, expnt(s) = [0.0801]
bas 176, expnt(s) = [0.1829]
bas 177, expnt(s) = [5.988e+03 8.989e+02 2.059e+02 5.924e+01 1.987e+01 7.406e+00 2.930e+00
 1.189e+00 4.798e-01]
bas 178, expnt(s) = [0.07509]
bas 179, expnt(s) = [0.02832]
bas 180, expnt(s) = [3.266  0.6511 0.1696]
bas 181, expnt(s) = [0.05578]
bas 182, expnt(s) = [0.0205]
bas 183, expnt(s) = [0.1874]
bas 184, expnt(s) = [0.0801]
bas 185, expnt(s) = [0.1829]
bas 186, expnt(s) = [5.988e+03 8.989e+02 2.059e+02 5.924e+01 1.987e+01 7.406e+00 2.930e+00
 1.189e+00 4.798e-01]
bas 187, expnt(s) = [0.07509]
bas 188, expnt(s) = [0.02832]
bas 189, expnt(s) = [3.266  0.6511 0.1696]
bas 190, expnt(s) = [0.05578]
bas 191, expnt(s) = [0.0205]
bas 192, expnt(s) = [0.1874]
bas 193, expnt(s) = [0.0801]
bas 194, expnt(s) = [0.1829]
bas 195, expnt(s) = [5.988e+03 8.989e+02 2.059e+02 5.924e+01 1.987e+01 7.406e+00 2.930e+00
 1.189e+00 4.798e-01]
bas 196, expnt(s) = [0.07509]
bas 197, expnt(s) = [0.02832]
bas 198, expnt(s) = [3.266  0.6511 0.1696]
bas 199, expnt(s) = [0.05578]
bas 200, expnt(s) = [0.0205]
bas 201, expnt(s) = [0.1874]
bas 202, expnt(s) = [0.0801]
bas 203, expnt(s) = [0.1829]
bas 204, expnt(s) = [5.988e+03 8.989e+02 2.059e+02 5.924e+01 1.987e+01 7.406e+00 2.930e+00
 1.189e+00 4.798e-01]
bas 205, expnt(s) = [0.07509]
bas 206, expnt(s) = [0.02832]
bas 207, expnt(s) = [3.266  0.6511 0.1696]
bas 208, expnt(s) = [0.05578]
bas 209, expnt(s) = [0.0205]
bas 210, expnt(s) = [0.1874]
bas 211, expnt(s) = [0.0801]
bas 212, expnt(s) = [0.1829]
bas 213, expnt(s) = [5.988e+03 8.989e+02 2.059e+02 5.924e+01 1.987e+01 7.406e+00 2.930e+00
 1.189e+00 4.798e-01]
bas 214, expnt(s) = [0.07509]
bas 215, expnt(s) = [0.02832]
bas 216, expnt(s) = [3.266  0.6511 0.1696]
bas 217, expnt(s) = [0.05578]
bas 218, expnt(s) = [0.0205]
bas 219, expnt(s) = [0.1874]
bas 220, expnt(s) = [0.0801]
bas 221, expnt(s) = [0.1829]
CPU time:         0.69
arg.atm = [[  6  20   1  23   0   0]
 [  8  24   1  27   0   0]
 [  6  28   1  31   0   0]
 [  8  32   1  35   0   0]
 [  6  36   1  39   0   0]
 [  8  40   1  43   0   0]
 [  1  44   1  47   0   0]
 [  1  48   1  51   0   0]
 [  1  52   1  55   0   0]
 [  1  56   1  59   0   0]
 [  3  60   1  63   0   0]
 [  3  64   1  67   0   0]
 [  3  68   1  71   0   0]
 [  3  72   1  75   0   0]
 [  3  76   1  79   0   0]
 [  3  80   1  83   0   0]
 [  3  84   1  87   0   0]
 [  3  88   1  91   0   0]
 [  3  92   1  95   0   0]
 [  3  96   1  99   0   0]
 [  3 100   1 103   0   0]
 [  3 104   1 107   0   0]
 [  3 108   1 111   0   0]
 [  3 112   1 115   0   0]
 [  3 116   1 119   0   0]
 [  3 120   1 123   0   0]]
arg.bas = [[  0   0   8 ... 140 148   0]
 [  0   0   1 ... 164 165   0]
 [  0   0   1 ... 166 167   0]
 ...
 [ 25   2   1 ... 269 270   0]
 [ 25   2   1 ... 271 272   0]
 [ 25   3   1 ... 273 274   0]]
arg.env = [ 0.00000000e+00  0.00000000e+00  0.00000000e+00  0.00000000e+00
  0.00000000e+00  0.00000000e+00  0.00000000e+00  0.00000000e+00
  0.00000000e+00  0.00000000e+00  0.00000000e+00  0.00000000e+00
  0.00000000e+00  0.00000000e+00  0.00000000e+00  0.00000000e+00
  0.00000000e+00  0.00000000e+00  0.00000000e+00  0.00000000e+00
  9.24019383e+00  8.69207877e+00  1.93853964e+01  0.00000000e+00
  9.20328748e+00  8.02338028e+00  1.69179054e+01  0.00000000e+00
  1.00360331e+01  9.81468947e+00  1.55586821e+01  0.00000000e+00
  1.08957451e+01  1.15484943e+01  1.69739736e+01  0.00000000e+00
  1.09115621e+01  1.07758609e+01  1.94118904e+01  0.00000000e+00
  1.00150193e+01  9.85709492e+00  1.34415463e+01  0.00000000e+00
  9.84993286e+00  7.17778453e+00  2.04358385e+01  0.00000000e+00
  7.47029524e+00  9.20530949e+00  1.99330201e+01  0.00000000e+00
  1.03268241e+01  1.22452552e+01  2.05375057e+01  0.00000000e+00
  1.26928935e+01  1.02404070e+01  1.98977389e+01  0.00000000e+00
  9.94742383e+00  9.94742383e+00  9.94742383e+00  0.00000000e+00
  9.94742383e+00  3.31580794e+00  9.94742383e+00  0.00000000e+00
  1.65790397e+01  9.94742383e+00  9.94742383e+00  0.00000000e+00
  3.31580794e+00  9.94742383e+00  9.94742383e+00  0.00000000e+00
  9.94742383e+00  1.65790397e+01  9.94742383e+00  0.00000000e+00
  1.32632318e+01  6.63161589e+00  6.63161589e+00  0.00000000e+00
  6.63161589e+00  6.63161589e+00  6.63161589e+00  0.00000000e+00
  1.32632318e+01  1.32632318e+01  6.63161589e+00  0.00000000e+00
  6.63161589e+00  1.32632318e+01  6.63161589e+00  0.00000000e+00
  1.65790397e+01  3.31580794e+00  9.94742383e+00  0.00000000e+00
  3.31580794e+00  3.31580794e+00  9.94742383e+00  0.00000000e+00
  1.65790397e+01  1.65790397e+01  9.94742383e+00  0.00000000e+00
  3.31580794e+00  1.65790397e+01  9.94742383e+00  0.00000000e+00
  9.94742383e+00  9.94742383e+00  3.31580794e+00  0.00000000e+00
  9.94742383e+00  3.31580794e+00  3.31580794e+00  0.00000000e+00
  1.65790397e+01  9.94742383e+00  3.31580794e+00  0.00000000e+00
  3.38700000e+01  5.09500000e+00  1.15900000e+00  9.04334519e-01
  1.63100455e+00  2.40491525e+00  3.25800000e-01  1.08950276e+00
  1.02700000e-01  4.58345379e-01  1.40700000e+00  4.47045795e+00
  3.88000000e-01  8.93354953e-01  1.05700000e+00  2.87515071e+00
  8.23600000e+03  1.23500000e+03  2.80800000e+02  7.92700000e+01
  2.55900000e+01  8.99700000e+00  3.31900000e+00  3.64300000e-01
  1.18480296e+00  2.20874210e+00  3.73316324e+00  5.61216719e+00
  6.89519583e+00  5.82409515e+00  2.19663441e+00 -1.08712663e-02
 -4.28969670e-01 -8.03166571e-01 -1.36745981e+00 -2.11525239e+00
 -2.78571299e+00 -2.89453423e+00 -1.83934657e+00  1.23268730e+00
  9.05900000e-01  2.34598494e+00  1.28500000e-01  5.42241022e-01
  1.87100000e+01  4.13300000e+00  1.20000000e+00  4.47572721e+00
  4.19627876e+00  2.98800046e+00  3.82700000e-01  8.78127282e-01
  1.20900000e-01  2.07977938e-01  1.09700000e+00  3.06825171e+00
  3.18000000e-01  3.51379844e-01  7.61000000e-01  1.06690522e+00
  1.53300000e+04  2.29900000e+03  5.22400000e+02  1.47300000e+02
  4.75500000e+01  1.67600000e+01  6.20700000e+00  6.88200000e-01
  1.81067529e+00  3.37486577e+00  5.72265412e+00  8.66150357e+00
  1.08070276e+01  9.28179538e+00  3.56346173e+00 -1.59395830e-02
 -6.86527364e-01 -1.28759909e+00 -2.19507417e+00 -3.43047366e+00
 -4.58719692e+00 -4.89805685e+00 -2.99457591e+00  1.97563931e+00
  1.75200000e+00  3.84738459e+00  2.38400000e-01  8.61975084e-01
  3.44600000e+01  7.74900000e+00  2.28000000e+00  1.00262994e+01
  9.72213774e+00  6.55849668e+00  7.15600000e-01  1.92009319e+00
  2.14000000e-01  4.24621137e-01  2.31400000e+00  1.13283134e+01
  6.45000000e-01  1.21132000e+00  1.42800000e+00  4.39692268e+00
  5.98800000e+03  8.98900000e+02  2.05900000e+02  5.92400000e+01
  1.98700000e+01  7.40600000e+00  2.93000000e+00  1.18900000e+00
  4.79800000e-01  2.29069316e-01  4.25756548e-01  7.25056076e-01
  1.13074246e+00  1.57971158e+00  1.88304523e+00  1.78512072e+00
  1.13373211e+00  2.78411257e-01 -1.33552750e-01 -2.46934407e-01
 -4.16416863e-01 -6.63522613e-01 -9.24900580e-01 -1.17847379e+00
 -1.17034612e+00 -1.05567981e+00 -6.04251387e-01  7.50900000e-02
  3.62411193e-01  2.83200000e-02  1.74415453e-01  3.26600000e+00
  6.51100000e-01  1.69600000e-01  4.55280795e-01  3.34078737e-01
  2.74333054e-01  5.57800000e-02  7.90828897e-02  2.05000000e-02
  2.26295917e-02  1.87400000e-01  1.39275961e-01  8.01000000e-02
  3.14692425e-02  1.82900000e-01  4.31510332e-02]
ecpbas  = []


******** <class 'pyscf.scf.hf.RHF'> ********
method = RHF
initial guess = minao
damping factor = 0
level_shift factor = 0
DIIS = <class 'pyscf.scf.diis.CDIIS'>
diis_start_cycle = 1
diis_space = 8
SCF conv_tol = 1e-09
SCF conv_tol_grad = None
SCF max_cycles = 50
direct_scf = True
direct_scf_tol = 1e-13
chkfile to save SCF result = /burg/ccce/users/eav2136/projects/batteries/01_mp2/tmp/tmpw8csnr1h
max_memory 700000 MB (current use 94 MB)
Set gradient conv threshold to 3.16228e-05
Nelec from initial guess = 93.99811211747692
E1 = -1795.5622963034723  E_coul = 741.2988076624331
init E= -463.37567159587
cond(S) = 479322.61272840423
    CPU time for initialize scf   1347.79 sec, wall time     42.74 sec
  HOMO = -0.0877338828538363  LUMO = -0.078750237935909
  mo_energy =
[-2.08436657e+01 -2.07936033e+01 -2.07926110e+01 -1.13786204e+01
 -1.13528392e+01 -1.13477187e+01 -2.51749097e+00 -2.51301775e+00
 -2.50958841e+00 -2.50904012e+00 -2.50456190e+00 -2.50172961e+00
 -2.49449324e+00 -2.49385262e+00 -2.49246803e+00 -2.49192942e+00
 -2.49055968e+00 -2.49017598e+00 -2.48559623e+00 -2.48548849e+00
 -2.48548365e+00 -2.48534030e+00 -2.16878793e+00 -1.79612874e+00
 -1.65780816e+00 -1.33706944e+00 -1.05210963e+00 -9.01235465e-01
 -8.03087850e-01 -7.85207702e-01 -6.88606434e-01 -6.62771610e-01
 -6.21370159e-01 -5.69991280e-01 -5.00323605e-01 -4.95229920e-01
 -4.93464164e-01 -4.37880629e-01 -4.04040897e-01 -3.24578241e-01
 -2.90434063e-01 -2.86827940e-01 -1.90304888e-01 -1.58371049e-01
 -1.42173616e-01 -1.30873623e-01 -8.77338829e-02 -7.87502379e-02
 -5.18253198e-02 -4.81529638e-02 -3.24403846e-02 -2.99924764e-02
 -1.78662798e-02 -6.24276998e-03 -3.55384765e-03  5.17796308e-03
  1.26299792e-02  1.38413260e-02  1.41540368e-02  1.76946301e-02
  1.86821985e-02  2.48650107e-02  2.93252909e-02  3.26146575e-02
  3.29922946e-02  4.08930457e-02  4.22876084e-02  4.68600357e-02
  5.03544867e-02  5.11462907e-02  5.30084106e-02  5.57275058e-02
  5.65090701e-02  5.77365456e-02  6.11788722e-02  6.21836082e-02
  6.29393509e-02  6.36133770e-02  6.63679219e-02  6.64707828e-02
  6.85494745e-02  6.91981041e-02  7.08615482e-02  7.36043905e-02
  7.48863564e-02  7.54727934e-02  7.63525253e-02  7.86257809e-02
  8.00911271e-02  8.29885293e-02  8.48491008e-02  8.57175175e-02
  8.76535463e-02  9.23166625e-02  9.30257868e-02  9.81951989e-02
  9.94125138e-02  1.01158095e-01  1.04402694e-01  1.04767077e-01
  1.05542272e-01  1.08562597e-01  1.10078501e-01  1.14074165e-01
  1.16536441e-01  1.19172912e-01  1.20634120e-01  1.22956413e-01
  1.24403812e-01  1.26762592e-01  1.28709364e-01  1.30407283e-01
  1.31313758e-01  1.33264687e-01  1.36158318e-01  1.38081510e-01
  1.40482702e-01  1.44112807e-01  1.44630271e-01  1.47205063e-01
  1.48551641e-01  1.50413396e-01  1.53129018e-01  1.55032288e-01
  1.59988424e-01  1.62348549e-01  1.62731425e-01  1.63953309e-01
  1.65197886e-01  1.68395750e-01  1.70391764e-01  1.71773721e-01
  1.78273335e-01  1.81187320e-01  1.83884650e-01  1.84332356e-01
  1.89248927e-01  1.89758164e-01  1.93876501e-01  1.95429450e-01
  1.97768371e-01  2.00001551e-01  2.03169767e-01  2.05286921e-01
  2.06333823e-01  2.08293924e-01  2.10126172e-01  2.12069867e-01
  2.12601909e-01  2.14739307e-01  2.16921701e-01  2.19251993e-01
  2.20719548e-01  2.25747339e-01  2.29123849e-01  2.30909701e-01
  2.33205680e-01  2.34642514e-01  2.35887653e-01  2.37598429e-01
  2.39520156e-01  2.42160739e-01  2.45993140e-01  2.47340916e-01
  2.50304482e-01  2.55159002e-01  2.60273509e-01  2.69708524e-01
  2.71370397e-01  2.75475810e-01  2.81170526e-01  2.84140137e-01
  2.88372806e-01  2.89645545e-01  2.91538278e-01  2.93234883e-01
  2.93615985e-01  2.95306537e-01  2.96502662e-01  3.02872813e-01
  3.04479044e-01  3.04844589e-01  3.08772661e-01  3.09763273e-01
  3.10553001e-01  3.14040051e-01  3.16855449e-01  3.22906219e-01
  3.30195659e-01  3.34060954e-01  3.35958390e-01  3.39578689e-01
  3.41462741e-01  3.44950285e-01  3.45622497e-01  3.48442703e-01
  3.51111143e-01  3.54767458e-01  3.56559807e-01  3.59267581e-01
  3.66354372e-01  3.68155470e-01  3.70834218e-01  3.76073320e-01
  3.76953667e-01  3.79199761e-01  3.82692368e-01  3.84060282e-01
  3.88283501e-01  3.89934727e-01  3.92511925e-01  3.94853333e-01
  3.96014342e-01  3.96832648e-01  3.99749588e-01  4.02648043e-01
  4.04451164e-01  4.05387487e-01  4.08251921e-01  4.09513722e-01
  4.10948394e-01  4.14135811e-01  4.16499229e-01  4.18737133e-01
  4.21474694e-01  4.25772095e-01  4.26508642e-01  4.31681391e-01
  4.32549197e-01  4.38034777e-01  4.40081573e-01  4.41849386e-01
  4.44425858e-01  4.47535731e-01  4.52020931e-01  4.55111832e-01
  4.56040611e-01  4.59335861e-01  4.62034031e-01  4.63179458e-01
  4.66076822e-01  4.66688161e-01  4.68598986e-01  4.72448992e-01
  4.77593794e-01  4.78451180e-01  4.79119202e-01  4.82997288e-01
  4.85748219e-01  4.88101798e-01  4.89367397e-01  4.93195488e-01
  4.94664801e-01  4.96603116e-01  4.99846880e-01  5.01715879e-01
  5.05917975e-01  5.07475571e-01  5.12794739e-01  5.14669401e-01
  5.16996600e-01  5.17885113e-01  5.20906940e-01  5.22759681e-01
  5.25016614e-01  5.28766284e-01  5.31616315e-01  5.36102027e-01
  5.37706272e-01  5.39502247e-01  5.39861648e-01  5.44876844e-01
  5.48968206e-01  5.50197907e-01  5.52302343e-01  5.54919124e-01
  5.63855439e-01  5.70227290e-01  5.71449189e-01  5.79332950e-01
  5.82871914e-01  5.88264806e-01  5.91030920e-01  5.94169303e-01
  5.99455564e-01  6.03582888e-01  6.05771968e-01  6.09999077e-01
  6.12734722e-01  6.13852210e-01  6.17919862e-01  6.22089575e-01
  6.23629902e-01  6.25591071e-01  6.33454127e-01  6.35975006e-01
  6.37832860e-01  6.41999872e-01  6.47919192e-01  6.52941777e-01
  6.57302025e-01  6.58982107e-01  6.61999579e-01  6.63011536e-01
  6.66689847e-01  6.67842833e-01  6.72530018e-01  6.74886338e-01
  6.78361186e-01  6.81271367e-01  6.84174537e-01  6.86057535e-01
  6.89268116e-01  6.92536858e-01  6.94174612e-01  6.95762306e-01
  6.97506739e-01  7.00476085e-01  7.02197019e-01  7.04446524e-01
  7.09941693e-01  7.12716643e-01  7.14672718e-01  7.18867611e-01
  7.19607670e-01  7.25859212e-01  7.28341513e-01  7.30844885e-01
  7.33650112e-01  7.35367691e-01  7.38959727e-01  7.40836335e-01
  7.43564388e-01  7.47806332e-01  7.54306985e-01  7.57158540e-01
  7.59801818e-01  7.60450051e-01  7.64032264e-01  7.69577515e-01
  7.71589924e-01  7.74233612e-01  7.76641188e-01  7.79813040e-01
  7.81354021e-01  7.85884825e-01  7.90073371e-01  7.93328184e-01
  7.94691937e-01  7.96372517e-01  7.99629565e-01  8.04020595e-01
  8.08275109e-01  8.08758882e-01  8.12022677e-01  8.13348318e-01
  8.15394459e-01  8.17842311e-01  8.21398609e-01  8.23272247e-01
  8.27675949e-01  8.28197855e-01  8.30433392e-01  8.32617277e-01
  8.35582887e-01  8.36602712e-01  8.38267359e-01  8.43929824e-01
  8.46058057e-01  8.47275517e-01  8.51030992e-01  8.53830341e-01
  8.59909005e-01  8.61063455e-01  8.63202847e-01  8.65272707e-01
  8.70600815e-01  8.73494747e-01  8.75527318e-01  8.77516194e-01
  8.79941947e-01  8.81743419e-01  8.85470429e-01  8.88653503e-01
  8.90006832e-01  8.93467370e-01  8.95728464e-01  8.98006519e-01
  8.99793100e-01  9.02551185e-01  9.07664140e-01  9.10094380e-01
  9.11954668e-01  9.17598006e-01  9.18106130e-01  9.20600538e-01
  9.22015268e-01  9.24925864e-01  9.29861880e-01  9.31583368e-01
  9.32741959e-01  9.33834717e-01  9.40344424e-01  9.41307874e-01
  9.42136562e-01  9.48941652e-01  9.49666677e-01  9.54577947e-01
  9.58238271e-01  9.61792768e-01  9.63369405e-01  9.69802852e-01
  9.75091128e-01  9.77074929e-01  9.81972870e-01  9.85864873e-01
  9.86931140e-01  9.89183322e-01  9.93086693e-01  9.97989187e-01
  1.00075276e+00  1.00123338e+00  1.00468887e+00  1.00883083e+00
  1.01133691e+00  1.01319891e+00  1.01708599e+00  1.02098596e+00
  1.02247179e+00  1.02521185e+00  1.02684925e+00  1.02919288e+00
  1.03328374e+00  1.03752740e+00  1.04098326e+00  1.04327247e+00
  1.04443206e+00  1.04717618e+00  1.05256378e+00  1.05448452e+00
  1.05896806e+00  1.06028299e+00  1.06171496e+00  1.06450959e+00
  1.06573757e+00  1.07091578e+00  1.07620403e+00  1.08130157e+00
  1.08792303e+00  1.08925700e+00  1.09660534e+00  1.10355997e+00
  1.10505916e+00  1.11130694e+00  1.11217309e+00  1.11615246e+00
  1.11842744e+00  1.12341626e+00  1.12690650e+00  1.13377933e+00
  1.13882755e+00  1.13938142e+00  1.14081365e+00  1.14618229e+00
  1.15281695e+00  1.15354982e+00  1.15758856e+00  1.16153948e+00
  1.16330386e+00  1.16699087e+00  1.16897223e+00  1.17513656e+00
  1.18026054e+00  1.18330641e+00  1.18930950e+00  1.19183052e+00
  1.19663733e+00  1.19853865e+00  1.20360524e+00  1.21012677e+00
  1.21304944e+00  1.22178084e+00  1.22365186e+00  1.22546925e+00
  1.23132172e+00  1.23466188e+00  1.23533886e+00  1.24187727e+00
  1.24377243e+00  1.25038162e+00  1.25194281e+00  1.25675807e+00
  1.26020355e+00  1.26385794e+00  1.26914508e+00  1.27366186e+00
  1.27800488e+00  1.27932089e+00  1.28209270e+00  1.28629004e+00
  1.28968508e+00  1.29379974e+00  1.29601463e+00  1.29721189e+00
  1.30140688e+00  1.30340132e+00  1.30876223e+00  1.31383191e+00
  1.31855397e+00  1.32233168e+00  1.33220278e+00  1.33294669e+00
  1.33441525e+00  1.34540087e+00  1.34972846e+00  1.35316623e+00
  1.35707869e+00  1.35828677e+00  1.36556144e+00  1.37762887e+00
  1.38494330e+00  1.38565394e+00  1.38880395e+00  1.39092684e+00
  1.39903068e+00  1.41189491e+00  1.41743402e+00  1.42902702e+00
  1.42975844e+00  1.43493497e+00  1.44775990e+00  1.45017037e+00
  1.46297176e+00  1.47401887e+00  1.47821662e+00  1.48857952e+00
  1.51538921e+00  1.51674795e+00  1.55005044e+00  1.55334317e+00
  1.57467952e+00  1.59817550e+00  1.60704202e+00  1.64597051e+00
  1.66421567e+00  1.68761164e+00  1.73907188e+00  1.80925052e+00
  1.81510201e+00  1.87234800e+00  1.88318325e+00  1.90858187e+00
  1.95286601e+00  2.00152293e+00  2.05243688e+00  2.06353438e+00
  2.14344757e+00  2.21680452e+00  2.27078532e+00  2.32083239e+00
  2.37937117e+00  2.40843698e+00  2.45839921e+00  2.46765318e+00
  2.49785639e+00  2.55284451e+00  2.61771939e+00  2.68427553e+00
  2.70038225e+00  2.70885041e+00  2.75348916e+00  2.79886188e+00
  2.84844962e+00  2.85042411e+00  2.86019438e+00  2.87850038e+00
  2.97029533e+00  2.98827638e+00  3.01044924e+00  3.06394565e+00
  3.10657282e+00  3.12947731e+00  3.14662071e+00  3.18260888e+00
  3.19925118e+00  3.23718906e+00  3.24847504e+00  3.25063658e+00
  3.29113375e+00  3.30551274e+00  3.31286223e+00  3.33005374e+00
  3.33986816e+00  3.34809008e+00  3.35220701e+00  3.37032553e+00
  3.40395833e+00  3.40863170e+00  3.41813876e+00  3.42438083e+00
  3.43877331e+00  3.46090456e+00  3.47115075e+00  3.48121458e+00
  3.48367665e+00  3.51788828e+00  3.53055780e+00  3.53419132e+00
  3.54779834e+00  3.61637118e+00  3.67710008e+00  3.68336315e+00
  3.68863632e+00  3.70504637e+00  3.74558255e+00  3.75611796e+00
  3.76304215e+00  3.76991866e+00  3.79902256e+00  3.84818718e+00
  3.86690810e+00  3.87165029e+00  3.90485239e+00  3.92361652e+00
  3.95447558e+00  3.97980991e+00  4.03657571e+00  4.04185197e+00
  4.06572594e+00  4.06866490e+00  4.09915227e+00  4.15161689e+00
  4.24543184e+00  4.27695123e+00  4.28033560e+00  4.29525618e+00
  4.31762732e+00  4.38478094e+00  4.39149311e+00  4.43102371e+00
  4.43555697e+00  4.50300729e+00  4.52980847e+00  4.53486898e+00
  4.59889546e+00  4.64088121e+00  4.65871545e+00  4.67194762e+00
  4.70811148e+00  4.78603107e+00  4.81915975e+00  4.93902562e+00
  4.99940169e+00  5.03267437e+00  5.05812109e+00  5.11903162e+00
  5.13176756e+00  5.29336331e+00  5.31201868e+00  5.37451290e+00
  5.42737170e+00  5.43115678e+00  5.43194948e+00  5.47819387e+00
  5.51291163e+00  5.51465349e+00  5.57833529e+00  5.65314316e+00
  5.71932823e+00  5.74030408e+00  5.82303039e+00  5.83670058e+00
  5.94808066e+00  5.95367371e+00  6.02676898e+00  6.05466010e+00
  6.09653116e+00  6.11418678e+00  6.14914978e+00  6.16515587e+00
  6.25240464e+00  6.34695250e+00  6.41797802e+00  6.42045987e+00
  6.42196926e+00  6.53802086e+00  6.60080424e+00  6.63937544e+00
  6.68817565e+00  6.76730438e+00  6.82779529e+00  6.87203408e+00
  6.87351609e+00  6.95328715e+00  7.01476492e+00  7.11250888e+00
  7.14943236e+00  7.22282254e+00  7.25900808e+00  7.26889125e+00
  7.30146490e+00  7.36624389e+00  7.42247086e+00  7.44964840e+00
  7.62965358e+00  7.69043309e+00  7.81849896e+00  7.90020880e+00
  8.02006819e+00  8.37630818e+00  1.11551216e+01  1.30680058e+01
  1.32996232e+01  1.40490608e+01  1.58865286e+01  1.74673387e+01]
E1 = -1799.8504948696773  E_coul = 749.4420466287237
cycle= 1 E= -459.520631195784  delta_E= 3.86  |g|= 0.958  |ddm|= 3.68
    CPU time for cycle= 1    238.94 sec, wall time      7.53 sec
diis-norm(errvec)=3.4752
diis-c [-12.07704066   1.        ]
  HOMO = -0.0810219672081978  LUMO = -0.00417945894175527
  mo_energy =
[-2.06139602e+01 -2.06131060e+01 -2.02799694e+01 -1.16926870e+01
 -1.14560789e+01 -1.14550801e+01 -2.50331724e+00 -2.47940920e+00
 -2.42185500e+00 -2.42149786e+00 -2.40848151e+00 -2.40550243e+00
 -2.40318511e+00 -2.40307357e+00 -2.39996064e+00 -2.39759453e+00
 -2.36307543e+00 -2.34112349e+00 -2.33333556e+00 -2.31490451e+00
 -2.31450567e+00 -2.27352950e+00 -1.70270777e+00 -1.51799481e+00
 -1.44799519e+00 -1.21050610e+00 -1.04503064e+00 -9.41537385e-01
 -8.85033021e-01 -8.25052658e-01 -7.93839851e-01 -7.25189698e-01
 -7.15427587e-01 -6.44606193e-01 -6.26490310e-01 -6.19510669e-01
 -5.43033600e-01 -4.82364016e-01 -4.42735267e-01 -2.32185762e-01
 -1.96336960e-01 -1.83557484e-01 -1.40805733e-01 -1.35451036e-01
 -1.14923459e-01 -9.14828106e-02 -8.10219672e-02 -4.17945894e-03
  9.30560349e-03  1.04910396e-02  1.52594950e-02  2.19750529e-02
  2.41831071e-02  2.60344925e-02  3.32122485e-02  3.81914183e-02
  4.08647387e-02  4.24338213e-02  4.37145186e-02  4.77909838e-02
  4.87648273e-02  4.97714381e-02  5.24266040e-02  5.53738447e-02
  5.99146405e-02  6.13313359e-02  6.39657821e-02  6.60731204e-02
  6.71428373e-02  7.15531837e-02  7.32566072e-02  7.60060150e-02
  7.66504433e-02  7.69965003e-02  7.92342722e-02  8.20386098e-02
  8.36438363e-02  8.44683429e-02  8.63181265e-02  8.67096401e-02
  9.05104007e-02  9.22505824e-02  9.33536492e-02  9.53143688e-02
  9.64319637e-02  9.95386380e-02  1.02237430e-01  1.03343630e-01
  1.06954015e-01  1.08112747e-01  1.08669806e-01  1.10102902e-01
  1.10613151e-01  1.16745249e-01  1.18373335e-01  1.18882635e-01
  1.20535522e-01  1.24476340e-01  1.25967072e-01  1.30316294e-01
  1.31038629e-01  1.32234673e-01  1.33171920e-01  1.35444101e-01
  1.42717459e-01  1.43009349e-01  1.48382058e-01  1.49740705e-01
  1.52122802e-01  1.56010027e-01  1.57440666e-01  1.58120202e-01
  1.61639233e-01  1.67846492e-01  1.69348108e-01  1.74030374e-01
  1.75677496e-01  1.76590630e-01  1.78147664e-01  1.79493812e-01
  1.82448406e-01  1.84043591e-01  1.86795898e-01  1.88112453e-01
  1.92502690e-01  1.93923556e-01  1.96390369e-01  1.96525420e-01
  1.98845974e-01  2.05459284e-01  2.07179291e-01  2.07680214e-01
  2.10661850e-01  2.12767402e-01  2.16624075e-01  2.18863874e-01
  2.22008381e-01  2.26667584e-01  2.29895646e-01  2.30707171e-01
  2.32307495e-01  2.33649296e-01  2.35866674e-01  2.40444998e-01
  2.42433080e-01  2.44631378e-01  2.46350544e-01  2.47543637e-01
  2.53967261e-01  2.55672397e-01  2.55819772e-01  2.64553443e-01
  2.66969423e-01  2.67301221e-01  2.72799971e-01  2.78026157e-01
  2.80498526e-01  2.81047107e-01  2.84537861e-01  2.86543717e-01
  2.90539698e-01  2.91940506e-01  2.95280388e-01  2.96127148e-01
  2.99511550e-01  3.02027502e-01  3.05787867e-01  3.11943838e-01
  3.12770912e-01  3.17797280e-01  3.19467725e-01  3.20112712e-01
  3.30059537e-01  3.33156857e-01  3.34615865e-01  3.36111522e-01
  3.38792250e-01  3.40878960e-01  3.43666169e-01  3.52042517e-01
  3.55882483e-01  3.57273338e-01  3.59073540e-01  3.64297551e-01
  3.65013205e-01  3.70865983e-01  3.73892251e-01  3.77543793e-01
  3.80005872e-01  3.81995222e-01  3.84485580e-01  3.88877113e-01
  3.89866885e-01  3.90852166e-01  3.95823202e-01  3.97662081e-01
  4.04608178e-01  4.06411284e-01  4.08806491e-01  4.10610719e-01
  4.12614790e-01  4.18272201e-01  4.21250846e-01  4.22169247e-01
  4.25239280e-01  4.26482476e-01  4.32399596e-01  4.32735926e-01
  4.34083121e-01  4.34874395e-01  4.36894820e-01  4.40796956e-01
  4.48029233e-01  4.51742340e-01  4.53944516e-01  4.55726614e-01
  4.58443419e-01  4.61318916e-01  4.63576394e-01  4.65403453e-01
  4.68025129e-01  4.73696988e-01  4.73825665e-01  4.78241019e-01
  4.82084329e-01  4.83978569e-01  4.85202329e-01  4.87309464e-01
  4.88193468e-01  4.91960846e-01  4.94740064e-01  4.96958362e-01
  5.01637538e-01  5.02307952e-01  5.03617053e-01  5.09537541e-01
  5.11423270e-01  5.11817765e-01  5.14488232e-01  5.16993607e-01
  5.18387934e-01  5.20515299e-01  5.28187893e-01  5.29393839e-01
  5.30313753e-01  5.34184676e-01  5.34733646e-01  5.37698428e-01
  5.38680877e-01  5.46673392e-01  5.49500632e-01  5.50606867e-01
  5.53346952e-01  5.56225188e-01  5.58862752e-01  5.60443220e-01
  5.61328327e-01  5.66866318e-01  5.67562548e-01  5.67717195e-01
  5.76690122e-01  5.77392245e-01  5.82394526e-01  5.83208590e-01
  5.88743492e-01  5.94171627e-01  5.95436047e-01  5.98470179e-01
  5.99433929e-01  6.01951765e-01  6.06013274e-01  6.07098960e-01
  6.09330954e-01  6.11375956e-01  6.13751942e-01  6.16105896e-01
  6.18408770e-01  6.20219238e-01  6.21385320e-01  6.24323372e-01
  6.27709913e-01  6.29447783e-01  6.31779265e-01  6.36175298e-01
  6.39400986e-01  6.42946371e-01  6.47603276e-01  6.50508851e-01
  6.61755093e-01  6.65130244e-01  6.68108755e-01  6.69824795e-01
  6.73832917e-01  6.78674021e-01  6.84123591e-01  6.97687342e-01
  6.98299257e-01  7.05834775e-01  7.08992799e-01  7.18001909e-01
  7.19195038e-01  7.22168799e-01  7.30899653e-01  7.35207863e-01
  7.40650208e-01  7.42575998e-01  7.46541118e-01  7.47859247e-01
  7.50189582e-01  7.52976314e-01  7.53717317e-01  7.60502506e-01
  7.62126611e-01  7.65506183e-01  7.66972916e-01  7.68100278e-01
  7.71479351e-01  7.76091421e-01  7.77383839e-01  7.78550048e-01
  7.81479772e-01  7.85275903e-01  7.85796475e-01  7.89519802e-01
  7.90788003e-01  7.93049530e-01  7.95180325e-01  7.99394089e-01
  8.03493447e-01  8.03654270e-01  8.07468093e-01  8.09608179e-01
  8.12550157e-01  8.14647999e-01  8.16263254e-01  8.23526310e-01
  8.28581952e-01  8.30489219e-01  8.34381037e-01  8.34920644e-01
  8.35456134e-01  8.43074236e-01  8.45848748e-01  8.48929088e-01
  8.49970399e-01  8.51129800e-01  8.55319174e-01  8.56826663e-01
  8.58159282e-01  8.59916777e-01  8.65137956e-01  8.67378617e-01
  8.69473319e-01  8.75662133e-01  8.76896735e-01  8.79973656e-01
  8.85171740e-01  8.87124894e-01  8.89145430e-01  8.91987973e-01
  8.97277263e-01  8.98673375e-01  9.02721157e-01  9.04309007e-01
  9.06675824e-01  9.08521045e-01  9.12329398e-01  9.12662221e-01
  9.16997688e-01  9.18252493e-01  9.21877058e-01  9.26558621e-01
  9.26664358e-01  9.27643774e-01  9.32063475e-01  9.34879487e-01
  9.41252182e-01  9.42342345e-01  9.43348531e-01  9.44517338e-01
  9.48498767e-01  9.53766640e-01  9.56851614e-01  9.58235218e-01
  9.60723714e-01  9.64386170e-01  9.67779285e-01  9.69860701e-01
  9.72336027e-01  9.74119274e-01  9.77792738e-01  9.78453734e-01
  9.80390122e-01  9.82739320e-01  9.85561082e-01  9.88377777e-01
  9.90238827e-01  9.94124219e-01  9.95975905e-01  9.98268829e-01
  1.00405767e+00  1.00818971e+00  1.01126063e+00  1.01311989e+00
  1.01346348e+00  1.01833810e+00  1.02340427e+00  1.02761100e+00
  1.03339200e+00  1.03636113e+00  1.04204535e+00  1.04464401e+00
  1.04585162e+00  1.04940397e+00  1.05195203e+00  1.05306686e+00
  1.05934116e+00  1.06144307e+00  1.06201598e+00  1.06471756e+00
  1.06929465e+00  1.07013971e+00  1.07527636e+00  1.08305917e+00
  1.08585269e+00  1.09302527e+00  1.09522739e+00  1.09791702e+00
  1.10089181e+00  1.10310785e+00  1.10688341e+00  1.10971037e+00
  1.11150744e+00  1.11295739e+00  1.11926277e+00  1.12147754e+00
  1.12519399e+00  1.13010481e+00  1.13440004e+00  1.13751118e+00
  1.14012143e+00  1.14205099e+00  1.14500039e+00  1.14709792e+00
  1.14966507e+00  1.15525183e+00  1.15597470e+00  1.15940889e+00
  1.16122862e+00  1.16420157e+00  1.16938064e+00  1.17032867e+00
  1.17576974e+00  1.18146447e+00  1.18778205e+00  1.18862528e+00
  1.19208405e+00  1.20291447e+00  1.20585707e+00  1.21040070e+00
  1.21320469e+00  1.21880907e+00  1.22400720e+00  1.22548970e+00
  1.22613663e+00  1.23382201e+00  1.23801390e+00  1.24292378e+00
  1.24739060e+00  1.25169182e+00  1.25454157e+00  1.25844309e+00
  1.26242158e+00  1.26742679e+00  1.26952108e+00  1.27505391e+00
  1.28007955e+00  1.28562290e+00  1.28924137e+00  1.29081541e+00
  1.29566442e+00  1.29709830e+00  1.30542093e+00  1.30722478e+00
  1.31243183e+00  1.31921920e+00  1.32443266e+00  1.33270130e+00
  1.33730341e+00  1.33983873e+00  1.34543191e+00  1.35019032e+00
  1.35473709e+00  1.36362785e+00  1.36941208e+00  1.37746900e+00
  1.37872887e+00  1.38058662e+00  1.38331453e+00  1.38791973e+00
  1.39057812e+00  1.39408087e+00  1.40015571e+00  1.40370710e+00
  1.40715954e+00  1.41489279e+00  1.41715409e+00  1.42370415e+00
  1.42658249e+00  1.42920091e+00  1.43080271e+00  1.43910945e+00
  1.44073902e+00  1.44374088e+00  1.44437694e+00  1.44882979e+00
  1.45430058e+00  1.45985600e+00  1.47234605e+00  1.47473277e+00
  1.47719677e+00  1.48138411e+00  1.48396918e+00  1.49549612e+00
  1.50187185e+00  1.51120155e+00  1.51955773e+00  1.52761542e+00
  1.53392041e+00  1.53454833e+00  1.54274123e+00  1.54554652e+00
  1.55859627e+00  1.57208252e+00  1.58604000e+00  1.59228755e+00
  1.60046790e+00  1.60331614e+00  1.60836988e+00  1.61043569e+00
  1.64542065e+00  1.65737858e+00  1.66036383e+00  1.69069938e+00
  1.69240607e+00  1.71464043e+00  1.76638827e+00  1.76754934e+00
  1.84931975e+00  1.88908358e+00  1.89298068e+00  1.97308725e+00
  1.98577293e+00  2.05189012e+00  2.05496463e+00  2.14464370e+00
  2.19616653e+00  2.24217552e+00  2.26185402e+00  2.32344190e+00
  2.38400673e+00  2.41025329e+00  2.44198896e+00  2.46886766e+00
  2.49806331e+00  2.52562681e+00  2.57435321e+00  2.61437687e+00
  2.66452078e+00  2.67250467e+00  2.74444805e+00  2.77518725e+00
  2.77946109e+00  2.81404126e+00  2.83719765e+00  2.85449855e+00
  2.94588762e+00  2.96520188e+00  3.00091067e+00  3.03841161e+00
  3.05739978e+00  3.06571120e+00  3.12704247e+00  3.13064589e+00
  3.14986045e+00  3.16257122e+00  3.23519075e+00  3.24324837e+00
  3.25892628e+00  3.26791971e+00  3.26973155e+00  3.28693227e+00
  3.31552454e+00  3.31877054e+00  3.34685947e+00  3.37508459e+00
  3.38529764e+00  3.40549684e+00  3.41127058e+00  3.42477815e+00
  3.44553731e+00  3.47997297e+00  3.48555416e+00  3.49328402e+00
  3.50899635e+00  3.52178822e+00  3.55138899e+00  3.55786451e+00
  3.57105869e+00  3.62415830e+00  3.63801947e+00  3.64923457e+00
  3.68022503e+00  3.71974003e+00  3.74446323e+00  3.76329496e+00
  3.80954356e+00  3.81803803e+00  3.83337434e+00  3.85315988e+00
  3.88101088e+00  3.90663584e+00  3.91347693e+00  3.93074808e+00
  3.93092116e+00  3.97807752e+00  4.00802040e+00  4.01738388e+00
  4.02816309e+00  4.04430563e+00  4.06876652e+00  4.11778840e+00
  4.21224420e+00  4.24734569e+00  4.26006895e+00  4.26249675e+00
  4.35073289e+00  4.36075231e+00  4.37818412e+00  4.40426502e+00
  4.46173356e+00  4.47311219e+00  4.48172347e+00  4.52408006e+00
  4.60794547e+00  4.63409972e+00  4.64768575e+00  4.77327495e+00
  4.80746310e+00  4.83163170e+00  4.90737062e+00  4.92475711e+00
  4.96968864e+00  5.01307723e+00  5.04531929e+00  5.10954720e+00
  5.18550258e+00  5.28904835e+00  5.29303969e+00  5.34926990e+00
  5.39569466e+00  5.47150935e+00  5.47847021e+00  5.48315671e+00
  5.60314960e+00  5.66644306e+00  5.67296874e+00  5.71541455e+00
  5.73426182e+00  5.75148904e+00  5.80974373e+00  5.89775035e+00
  5.95198045e+00  5.98254185e+00  6.04403943e+00  6.06422843e+00
  6.09885046e+00  6.14333294e+00  6.18251243e+00  6.22427033e+00
  6.24359889e+00  6.36355747e+00  6.41030322e+00  6.43529599e+00
  6.46617821e+00  6.58307429e+00  6.62083208e+00  6.74155398e+00
  6.82062594e+00  6.85007716e+00  6.91097742e+00  7.09040937e+00
  7.10711492e+00  7.13565924e+00  7.18390121e+00  7.21383780e+00
  7.25304311e+00  7.29542261e+00  7.35447701e+00  7.36705206e+00
  7.44104319e+00  7.53873033e+00  7.59282048e+00  7.62907154e+00
  7.76761197e+00  7.78299522e+00  8.03894130e+00  8.06576292e+00
  8.11383910e+00  8.48486080e+00  1.11964589e+01  1.31073149e+01
  1.33557591e+01  1.40438805e+01  1.57928356e+01  1.75080242e+01]
E1 = -1796.623447274878  E_coul = 746.0733101707394
cycle= 2 E= -459.662320058969  delta_E= -0.142  |g|= 0.606  |ddm|= 1.84
    CPU time for cycle= 2    236.71 sec, wall time      7.44 sec
diis-norm(errvec)=2.41295
diis-c [-1.22010994  0.39433344  0.60566656]
  HOMO = -0.120930444500619  LUMO = -0.0203004553067416
  mo_energy =
[-2.06444796e+01 -2.06443625e+01 -2.06299287e+01 -1.14704225e+01
 -1.13206902e+01 -1.13196598e+01 -2.48232183e+00 -2.46086006e+00
 -2.44569589e+00 -2.44544027e+00 -2.44507244e+00 -2.44506427e+00
 -2.44454071e+00 -2.44176242e+00 -2.44147322e+00 -2.43867025e+00
 -2.43847549e+00 -2.43805498e+00 -2.42720795e+00 -2.42358949e+00
 -2.42126447e+00 -2.42094474e+00 -1.64697942e+00 -1.50725438e+00
 -1.47483924e+00 -1.14215584e+00 -9.94558777e-01 -9.04133244e-01
 -8.39327129e-01 -8.19269575e-01 -7.59303603e-01 -7.33963914e-01
 -6.97527990e-01 -6.83286396e-01 -6.11242804e-01 -5.88569936e-01
 -5.57813759e-01 -5.40952932e-01 -5.08896388e-01 -2.97158631e-01
 -2.33067008e-01 -2.31885532e-01 -1.85629419e-01 -1.67970549e-01
 -1.56009725e-01 -1.45402549e-01 -1.20930445e-01 -2.03004553e-02
 -4.88562979e-03 -5.94407131e-04  4.53688477e-03  5.88661520e-03
  1.12246029e-02  1.90204503e-02  2.27309550e-02  2.80305193e-02
  2.92151386e-02  3.16674553e-02  3.30711645e-02  3.61528142e-02
  3.83058374e-02  4.33881284e-02  4.37633748e-02  4.73018501e-02
  5.05965559e-02  5.74787143e-02  5.78582208e-02  6.04819783e-02
  6.12960346e-02  6.32752607e-02  6.56198326e-02  6.80026799e-02
  6.84353249e-02  6.98491767e-02  7.39053960e-02  7.46550670e-02
  7.61388076e-02  7.66349396e-02  7.88360811e-02  8.01833332e-02
  8.25234074e-02  8.37933482e-02  8.47153688e-02  8.71041227e-02
  8.74015309e-02  8.85151887e-02  8.97411131e-02  9.04067957e-02
  9.12134047e-02  9.74895293e-02  9.82892107e-02  9.97177463e-02
  1.03042651e-01  1.04085001e-01  1.04426513e-01  1.08593396e-01
  1.13045148e-01  1.13805407e-01  1.18652378e-01  1.19270418e-01
  1.19414870e-01  1.20102490e-01  1.24409620e-01  1.29366469e-01
  1.30191008e-01  1.33246661e-01  1.38972581e-01  1.39950347e-01
  1.44014147e-01  1.44709626e-01  1.47656066e-01  1.52700372e-01
  1.54023621e-01  1.56031180e-01  1.56301072e-01  1.61249586e-01
  1.62199118e-01  1.63484114e-01  1.63767910e-01  1.64902496e-01
  1.71590492e-01  1.73805328e-01  1.75768203e-01  1.76952245e-01
  1.77846267e-01  1.80487838e-01  1.83365544e-01  1.88608101e-01
  1.91283176e-01  1.91632268e-01  1.95300430e-01  1.99641913e-01
  2.01990436e-01  2.03553063e-01  2.06755119e-01  2.08282576e-01
  2.09857543e-01  2.11887320e-01  2.14680447e-01  2.17008605e-01
  2.19126234e-01  2.20674189e-01  2.23925123e-01  2.24780025e-01
  2.26903272e-01  2.27393149e-01  2.29498694e-01  2.32245965e-01
  2.32537496e-01  2.37970390e-01  2.38252101e-01  2.42534409e-01
  2.46507106e-01  2.50209184e-01  2.53976039e-01  2.56184009e-01
  2.59909666e-01  2.63104536e-01  2.64787897e-01  2.65619665e-01
  2.66935114e-01  2.69466609e-01  2.72901330e-01  2.73417583e-01
  2.78930462e-01  2.82876267e-01  2.85016730e-01  2.95441555e-01
  3.01215847e-01  3.01937684e-01  3.05091986e-01  3.11326942e-01
  3.13706202e-01  3.15409947e-01  3.18987777e-01  3.20295340e-01
  3.24021589e-01  3.26227423e-01  3.26995428e-01  3.28476979e-01
  3.29829836e-01  3.30399432e-01  3.36937428e-01  3.39015319e-01
  3.41268672e-01  3.45469865e-01  3.47357978e-01  3.48595782e-01
  3.52622449e-01  3.57485985e-01  3.60174338e-01  3.62114847e-01
  3.66440178e-01  3.67823126e-01  3.76055119e-01  3.79454106e-01
  3.80484658e-01  3.84724805e-01  3.85310489e-01  3.92107100e-01
  3.93328470e-01  3.97116616e-01  3.98665687e-01  4.04015134e-01
  4.09198084e-01  4.11720590e-01  4.12944136e-01  4.13439108e-01
  4.17175564e-01  4.18300975e-01  4.20777181e-01  4.22225765e-01
  4.27445188e-01  4.29327359e-01  4.31305669e-01  4.34472508e-01
  4.35350133e-01  4.36228273e-01  4.38806527e-01  4.40108508e-01
  4.42789925e-01  4.44629660e-01  4.48042473e-01  4.49012147e-01
  4.54334452e-01  4.54551771e-01  4.60386522e-01  4.60857664e-01
  4.64688449e-01  4.67503128e-01  4.73128355e-01  4.74274566e-01
  4.76589303e-01  4.79599225e-01  4.80782829e-01  4.85077148e-01
  4.89512303e-01  4.91235592e-01  4.92788473e-01  4.93472602e-01
  4.96547059e-01  4.98024118e-01  5.00980570e-01  5.02526042e-01
  5.04924085e-01  5.08142397e-01  5.11009789e-01  5.13407228e-01
  5.15809916e-01  5.16829745e-01  5.20998295e-01  5.25185418e-01
  5.25946816e-01  5.29669919e-01  5.31642256e-01  5.33508414e-01
  5.37086868e-01  5.38781539e-01  5.40350473e-01  5.41958490e-01
  5.44458729e-01  5.47204787e-01  5.51729591e-01  5.56404410e-01
  5.61456075e-01  5.62248673e-01  5.63141198e-01  5.64620598e-01
  5.72825861e-01  5.74136157e-01  5.76300530e-01  5.76550139e-01
  5.78173852e-01  5.84456676e-01  5.86555747e-01  5.87258098e-01
  5.90735070e-01  5.94198296e-01  5.98976673e-01  6.04681227e-01
  6.09801932e-01  6.18237225e-01  6.20030061e-01  6.25348589e-01
  6.28506358e-01  6.34533289e-01  6.36079697e-01  6.40201480e-01
  6.44277225e-01  6.47618838e-01  6.53482164e-01  6.56105480e-01
  6.60048586e-01  6.63975416e-01  6.65967180e-01  6.69333518e-01
  6.72588915e-01  6.78705341e-01  6.79357761e-01  6.85211701e-01
  6.94963367e-01  6.98551785e-01  7.00743778e-01  7.04415500e-01
  7.09097067e-01  7.12572911e-01  7.15168948e-01  7.17675409e-01
  7.22306468e-01  7.24865698e-01  7.27039884e-01  7.28515333e-01
  7.31061992e-01  7.34779285e-01  7.36376872e-01  7.37554508e-01
  7.39240660e-01  7.42290641e-01  7.44927188e-01  7.47287878e-01
  7.51386697e-01  7.54311093e-01  7.56398442e-01  7.61520747e-01
  7.62281055e-01  7.67251963e-01  7.69531839e-01  7.71958214e-01
  7.74303407e-01  7.74822382e-01  7.78037195e-01  7.80318631e-01
  7.83361400e-01  7.84585777e-01  7.88302693e-01  7.93631329e-01
  7.98758905e-01  8.00816789e-01  8.04013976e-01  8.06430108e-01
  8.07093644e-01  8.11571186e-01  8.12753554e-01  8.17084983e-01
  8.22335957e-01  8.25032880e-01  8.25723505e-01  8.27419617e-01
  8.33676572e-01  8.35082945e-01  8.36692040e-01  8.37240743e-01
  8.40248128e-01  8.41443931e-01  8.48433055e-01  8.50601666e-01
  8.51411876e-01  8.54405299e-01  8.61546815e-01  8.62153970e-01
  8.63888230e-01  8.68242062e-01  8.68892218e-01  8.72585996e-01
  8.76572129e-01  8.78230272e-01  8.81187345e-01  8.85033043e-01
  8.85531430e-01  8.86313588e-01  8.91368219e-01  8.92761911e-01
  8.94732533e-01  8.98375317e-01  9.00026808e-01  9.04497950e-01
  9.06729510e-01  9.11866703e-01  9.15279138e-01  9.15661777e-01
  9.17157811e-01  9.20830669e-01  9.24671771e-01  9.26813060e-01
  9.30281350e-01  9.33563278e-01  9.34021899e-01  9.36065177e-01
  9.36964924e-01  9.38682295e-01  9.44267598e-01  9.48563378e-01
  9.49697576e-01  9.51475554e-01  9.52723350e-01  9.56002180e-01
  9.59693960e-01  9.63325755e-01  9.66457834e-01  9.70108811e-01
  9.73450217e-01  9.74189749e-01  9.75421997e-01  9.76622498e-01
  9.81580748e-01  9.84919813e-01  9.92023166e-01  9.94776047e-01
  9.97099835e-01  9.99761260e-01  1.00531813e+00  1.00747120e+00
  1.00983988e+00  1.01300279e+00  1.01571016e+00  1.02244296e+00
  1.02784107e+00  1.02891003e+00  1.03051038e+00  1.03649069e+00
  1.03792511e+00  1.04171311e+00  1.04358048e+00  1.04776467e+00
  1.05214259e+00  1.05278612e+00  1.05417374e+00  1.05853361e+00
  1.05969477e+00  1.06248396e+00  1.06658626e+00  1.06712798e+00
  1.07175726e+00  1.07209409e+00  1.07619075e+00  1.08267107e+00
  1.08529984e+00  1.08803643e+00  1.09026633e+00  1.09322158e+00
  1.09559415e+00  1.10113089e+00  1.10458951e+00  1.10668682e+00
  1.10875661e+00  1.11326215e+00  1.11790726e+00  1.11902138e+00
  1.12390290e+00  1.12712564e+00  1.13243503e+00  1.13653854e+00
  1.14294891e+00  1.14601018e+00  1.15177521e+00  1.15938043e+00
  1.16116064e+00  1.16381394e+00  1.17056261e+00  1.17736136e+00
  1.17883499e+00  1.18327000e+00  1.18705386e+00  1.19030346e+00
  1.19696423e+00  1.20024822e+00  1.20644184e+00  1.20895282e+00
  1.21082449e+00  1.21354723e+00  1.21604928e+00  1.21792574e+00
  1.22119464e+00  1.22576953e+00  1.23046503e+00  1.23546311e+00
  1.23873806e+00  1.24051028e+00  1.24765276e+00  1.25178036e+00
  1.25246465e+00  1.26008729e+00  1.26687669e+00  1.26942916e+00
  1.27262585e+00  1.28005041e+00  1.28147855e+00  1.28479206e+00
  1.28783659e+00  1.29170760e+00  1.29550679e+00  1.29830609e+00
  1.30546700e+00  1.31377244e+00  1.31452078e+00  1.31533527e+00
  1.32026298e+00  1.32354949e+00  1.32715414e+00  1.33383554e+00
  1.33700869e+00  1.34021462e+00  1.34222513e+00  1.34685994e+00
  1.35493890e+00  1.35624986e+00  1.36216935e+00  1.36885189e+00
  1.37136729e+00  1.37312557e+00  1.37551829e+00  1.37726529e+00
  1.38370906e+00  1.38882680e+00  1.39882451e+00  1.40810186e+00
  1.41186944e+00  1.41352679e+00  1.41711758e+00  1.42030068e+00
  1.43080446e+00  1.43441599e+00  1.44503266e+00  1.44598391e+00
  1.44754098e+00  1.45204674e+00  1.45548281e+00  1.45892301e+00
  1.47005480e+00  1.47664563e+00  1.48687106e+00  1.49545204e+00
  1.51386269e+00  1.51604019e+00  1.52848399e+00  1.53355484e+00
  1.54539105e+00  1.55726167e+00  1.56985302e+00  1.58410479e+00
  1.58618346e+00  1.62044013e+00  1.62973788e+00  1.66329109e+00
  1.67847913e+00  1.68545441e+00  1.75006698e+00  1.80549030e+00
  1.86468246e+00  1.89348776e+00  1.89956044e+00  1.93940017e+00
  1.97991695e+00  2.00784430e+00  2.07555332e+00  2.11009970e+00
  2.16343146e+00  2.24676099e+00  2.29027154e+00  2.34546608e+00
  2.40564838e+00  2.43337115e+00  2.47260298e+00  2.47942210e+00
  2.51496950e+00  2.54763908e+00  2.62068104e+00  2.67312299e+00
  2.69073805e+00  2.72104408e+00  2.78268955e+00  2.79623463e+00
  2.83404762e+00  2.86807983e+00  2.87238105e+00  2.89041079e+00
  2.97687245e+00  3.00648564e+00  3.02673430e+00  3.06323363e+00
  3.11077419e+00  3.12519412e+00  3.14728364e+00  3.18215655e+00
  3.20186305e+00  3.22957992e+00  3.27150189e+00  3.29245349e+00
  3.29576862e+00  3.30050776e+00  3.31800970e+00  3.33340604e+00
  3.34722220e+00  3.35252773e+00  3.36502355e+00  3.38397248e+00
  3.40927300e+00  3.41604512e+00  3.44515242e+00  3.45536304e+00
  3.45869265e+00  3.47454267e+00  3.48140357e+00  3.50803567e+00
  3.51427266e+00  3.53256281e+00  3.53588447e+00  3.56340741e+00
  3.57697568e+00  3.61440913e+00  3.67166811e+00  3.69432524e+00
  3.70219950e+00  3.75883274e+00  3.76504881e+00  3.77373754e+00
  3.80345132e+00  3.82844286e+00  3.83915126e+00  3.85585540e+00
  3.85699487e+00  3.89466638e+00  3.92195053e+00  3.94103743e+00
  3.95805424e+00  3.96930565e+00  4.02553982e+00  4.04361384e+00
  4.05833413e+00  4.07848655e+00  4.09691403e+00  4.15561633e+00
  4.24828308e+00  4.28034438e+00  4.29205110e+00  4.29785806e+00
  4.37728288e+00  4.39035950e+00  4.39586145e+00  4.43194417e+00
  4.43826285e+00  4.50507781e+00  4.51797105e+00  4.52402207e+00
  4.65480737e+00  4.67576015e+00  4.68087349e+00  4.70833797e+00
  4.76914909e+00  4.82182573e+00  4.83797844e+00  4.94787663e+00
  5.01347842e+00  5.05521635e+00  5.08508295e+00  5.14395989e+00
  5.17425873e+00  5.32639488e+00  5.33518891e+00  5.39661641e+00
  5.43942445e+00  5.48659966e+00  5.49442530e+00  5.52966765e+00
  5.56929778e+00  5.59664677e+00  5.60890108e+00  5.68427427e+00
  5.75532763e+00  5.75900101e+00  5.84970784e+00  5.87876825e+00
  5.98820696e+00  5.99550904e+00  6.09076279e+00  6.10923296e+00
  6.11979024e+00  6.14598628e+00  6.20465392e+00  6.21164441e+00
  6.28583424e+00  6.39478581e+00  6.45057289e+00  6.46724557e+00
  6.47944932e+00  6.59512741e+00  6.64945161e+00  6.72041274e+00
  6.79689227e+00  6.85246408e+00  6.90324472e+00  6.96638872e+00
  6.98952879e+00  7.03869226e+00  7.10255922e+00  7.20620761e+00
  7.23482391e+00  7.30672742e+00  7.35530575e+00  7.35868238e+00
  7.42694349e+00  7.45965655e+00  7.52350170e+00  7.53573986e+00
  7.74780489e+00  7.77368541e+00  7.92911837e+00  8.00174932e+00
  8.10180504e+00  8.45191839e+00  1.12014435e+01  1.31195178e+01
  1.33719464e+01  1.40794144e+01  1.58949555e+01  1.74940652e+01]
E1 = -1799.6321611527076  E_coul = 748.9910589343488
cycle= 3 E= -459.753285173189  delta_E= -0.091  |g|= 0.0928  |ddm|= 0.608
    CPU time for cycle= 3    240.17 sec, wall time      7.55 sec
diis-norm(errvec)=0.510567
diis-c [-0.18496676 -0.06347761  0.03381813  1.02965948]
  HOMO = -0.110922563030189  LUMO = -0.00675586483995326
  mo_energy =
[-2.06571321e+01 -2.06570218e+01 -2.05707064e+01 -1.14284524e+01
 -1.12947145e+01 -1.12936694e+01 -2.47311360e+00 -2.44636777e+00
 -2.43629900e+00 -2.43627796e+00 -2.43620216e+00 -2.43554073e+00
 -2.43153751e+00 -2.43151926e+00 -2.42739195e+00 -2.42719770e+00
 -2.41089324e+00 -2.40161343e+00 -2.39939641e+00 -2.39717196e+00
 -2.39342917e+00 -2.39334764e+00 -1.63259602e+00 -1.47829179e+00
 -1.46850773e+00 -1.12411302e+00 -9.80621808e-01 -8.94861318e-01
 -8.27425781e-01 -8.01471906e-01 -7.44810775e-01 -7.16262020e-01
 -6.79012508e-01 -6.75586689e-01 -6.11067071e-01 -5.79268361e-01
 -5.36189930e-01 -5.23267288e-01 -5.01962353e-01 -2.75673475e-01
 -2.19109480e-01 -2.17620615e-01 -1.73594566e-01 -1.61089239e-01
 -1.46121840e-01 -1.33402865e-01 -1.10922563e-01 -6.75586484e-03
  3.57290698e-03  9.26143365e-03  1.19503754e-02  1.34695884e-02
  1.85350295e-02  2.37194134e-02  2.69927540e-02  3.26924640e-02
  3.30086427e-02  3.56209958e-02  3.64768323e-02  4.07143718e-02
  4.13279283e-02  4.64931723e-02  4.82900998e-02  5.15254968e-02
  5.39174363e-02  6.10798722e-02  6.31160180e-02  6.36338913e-02
  6.46543623e-02  6.67391440e-02  6.88434367e-02  7.05546041e-02
  7.17822936e-02  7.32236168e-02  7.75546016e-02  7.79961553e-02
  7.84182655e-02  8.06737633e-02  8.27509577e-02  8.31099444e-02
  8.57188003e-02  8.74098737e-02  8.95918865e-02  8.99288344e-02
  9.07886789e-02  9.16365842e-02  9.19262552e-02  9.39494783e-02
  9.49264138e-02  9.93375905e-02  9.98476466e-02  1.02205717e-01
  1.08819585e-01  1.08969617e-01  1.09645612e-01  1.10675790e-01
  1.15820556e-01  1.16910533e-01  1.21819073e-01  1.23068259e-01
  1.23126274e-01  1.23828293e-01  1.28375641e-01  1.34044466e-01
  1.35656692e-01  1.39394919e-01  1.43781667e-01  1.44487293e-01
  1.48759162e-01  1.49274372e-01  1.52142829e-01  1.57765355e-01
  1.60025254e-01  1.61998959e-01  1.63415432e-01  1.66112748e-01
  1.66923423e-01  1.68852878e-01  1.70184084e-01  1.71890595e-01
  1.78920986e-01  1.79449456e-01  1.80301227e-01  1.82746035e-01
  1.85405464e-01  1.87528604e-01  1.88271773e-01  1.93574668e-01
  1.99085909e-01  2.01088669e-01  2.03695048e-01  2.06826871e-01
  2.07135525e-01  2.11096808e-01  2.12743862e-01  2.14986531e-01
  2.16767064e-01  2.19260735e-01  2.21736630e-01  2.23585539e-01
  2.25696612e-01  2.27609202e-01  2.29878929e-01  2.31169783e-01
  2.32525010e-01  2.33036054e-01  2.36338639e-01  2.37800071e-01
  2.40106460e-01  2.43501339e-01  2.46511576e-01  2.50813433e-01
  2.55081568e-01  2.57805913e-01  2.60984205e-01  2.65336612e-01
  2.69529813e-01  2.71008199e-01  2.72928961e-01  2.74743956e-01
  2.76009418e-01  2.77322539e-01  2.81030090e-01  2.81978627e-01
  2.86478671e-01  2.93011381e-01  2.95129085e-01  3.03562957e-01
  3.07895192e-01  3.09152849e-01  3.12519864e-01  3.18621230e-01
  3.20672333e-01  3.21470238e-01  3.25806640e-01  3.28091025e-01
  3.32703936e-01  3.35649141e-01  3.36397888e-01  3.37832534e-01
  3.39208384e-01  3.39772297e-01  3.45109562e-01  3.48145141e-01
  3.50242044e-01  3.55085210e-01  3.56752814e-01  3.59107792e-01
  3.63380538e-01  3.65258113e-01  3.69738363e-01  3.70643682e-01
  3.72672883e-01  3.75768192e-01  3.83312928e-01  3.87799754e-01
  3.90286548e-01  3.92501111e-01  3.93409100e-01  4.01046689e-01
  4.02280881e-01  4.05584925e-01  4.06635355e-01  4.12727085e-01
  4.16944161e-01  4.18496737e-01  4.21172729e-01  4.22840200e-01
  4.25044540e-01  4.29166028e-01  4.29456178e-01  4.31451358e-01
  4.35613305e-01  4.39356335e-01  4.40756382e-01  4.42025089e-01
  4.44927793e-01  4.46494579e-01  4.48588522e-01  4.49764321e-01
  4.54880044e-01  4.57406038e-01  4.59009185e-01  4.61293379e-01
  4.63762033e-01  4.64821605e-01  4.67207123e-01  4.70980119e-01
  4.72348148e-01  4.76570718e-01  4.81001118e-01  4.84020563e-01
  4.86715314e-01  4.88441851e-01  4.90378861e-01  4.95824427e-01
  4.97635954e-01  4.99764377e-01  5.01435195e-01  5.04797661e-01
  5.07748364e-01  5.09000851e-01  5.09601758e-01  5.12643748e-01
  5.14403428e-01  5.18457597e-01  5.21143060e-01  5.24701421e-01
  5.26095350e-01  5.27576628e-01  5.32112324e-01  5.33361404e-01
  5.35836804e-01  5.40101382e-01  5.43652381e-01  5.44054476e-01
  5.47885813e-01  5.49719822e-01  5.49916139e-01  5.52179287e-01
  5.57481693e-01  5.57754155e-01  5.64923601e-01  5.69161766e-01
  5.72635838e-01  5.72894428e-01  5.75420730e-01  5.76321145e-01
  5.83666364e-01  5.85881555e-01  5.87512004e-01  5.87525513e-01
  5.89647213e-01  5.94520799e-01  5.98278551e-01  6.00179252e-01
  6.02424280e-01  6.03513389e-01  6.10981760e-01  6.15277779e-01
  6.18518139e-01  6.25096095e-01  6.30004495e-01  6.34579218e-01
  6.39822591e-01  6.43365640e-01  6.45765628e-01  6.50252186e-01
  6.54857090e-01  6.58631676e-01  6.64273931e-01  6.66079377e-01
  6.73262630e-01  6.74897227e-01  6.78757436e-01  6.83442434e-01
  6.85493442e-01  6.90470124e-01  6.93840894e-01  6.97560510e-01
  7.06868658e-01  7.13234538e-01  7.15557935e-01  7.18768349e-01
  7.22979879e-01  7.25533701e-01  7.27785593e-01  7.32851363e-01
  7.37485255e-01  7.38678817e-01  7.41650114e-01  7.41976554e-01
  7.45780208e-01  7.48728450e-01  7.49611977e-01  7.51124163e-01
  7.52583811e-01  7.54176239e-01  7.59587649e-01  7.61335447e-01
  7.63829636e-01  7.68357367e-01  7.68602005e-01  7.72903646e-01
  7.76371673e-01  7.80057574e-01  7.82853355e-01  7.84368923e-01
  7.86721447e-01  7.89130635e-01  7.90198917e-01  7.93630785e-01
  7.96724700e-01  7.97248934e-01  8.00738536e-01  8.03984196e-01
  8.08946588e-01  8.11813776e-01  8.15332483e-01  8.17462417e-01
  8.19382965e-01  8.24006088e-01  8.25115313e-01  8.30367835e-01
  8.32891928e-01  8.36004961e-01  8.36483821e-01  8.38174946e-01
  8.41914289e-01  8.44228252e-01  8.46166803e-01  8.47601877e-01
  8.49561437e-01  8.51744000e-01  8.58028787e-01  8.61014578e-01
  8.62897230e-01  8.64539067e-01  8.71866439e-01  8.74535520e-01
  8.76908391e-01  8.79832227e-01  8.82359876e-01  8.84692279e-01
  8.88477862e-01  8.89289535e-01  8.94160939e-01  8.96943270e-01
  8.97977600e-01  8.99682867e-01  9.03459133e-01  9.05865909e-01
  9.07019379e-01  9.09343107e-01  9.09652834e-01  9.15954369e-01
  9.18163486e-01  9.23627459e-01  9.25067736e-01  9.27806451e-01
  9.30080092e-01  9.33091628e-01  9.36079743e-01  9.37036898e-01
  9.43013262e-01  9.45055714e-01  9.45898309e-01  9.47734434e-01
  9.50281479e-01  9.50874212e-01  9.55032334e-01  9.58089661e-01
  9.61685721e-01  9.63052929e-01  9.64348100e-01  9.68026649e-01
  9.71013708e-01  9.75707488e-01  9.78214973e-01  9.83508782e-01
  9.85159004e-01  9.86053006e-01  9.88012902e-01  9.90732266e-01
  9.94007135e-01  9.96610851e-01  1.00414697e+00  1.00674155e+00
  1.01333422e+00  1.01552877e+00  1.01892419e+00  1.02080780e+00
  1.02217977e+00  1.02554460e+00  1.02775250e+00  1.03453073e+00
  1.04039992e+00  1.04176003e+00  1.04359865e+00  1.04887952e+00
  1.04973266e+00  1.05509653e+00  1.05645559e+00  1.06171264e+00
  1.06426236e+00  1.06441122e+00  1.06805599e+00  1.07312945e+00
  1.07391885e+00  1.07617228e+00  1.08051990e+00  1.08057565e+00
  1.08558610e+00  1.08745272e+00  1.09014768e+00  1.09665310e+00
  1.09985106e+00  1.10141565e+00  1.10500851e+00  1.10681252e+00
  1.10874598e+00  1.11597672e+00  1.11802418e+00  1.12202005e+00
  1.12313496e+00  1.12768507e+00  1.13213324e+00  1.13279881e+00
  1.13744812e+00  1.13991172e+00  1.14607402e+00  1.15006934e+00
  1.15624989e+00  1.16054612e+00  1.16492926e+00  1.17301953e+00
  1.17510596e+00  1.17889647e+00  1.18580276e+00  1.19061429e+00
  1.19175182e+00  1.19838368e+00  1.20389826e+00  1.20733442e+00
  1.21358294e+00  1.21530199e+00  1.22082568e+00  1.22334281e+00
  1.22514933e+00  1.22952869e+00  1.23112783e+00  1.23245552e+00
  1.23854960e+00  1.24253511e+00  1.24666232e+00  1.25196978e+00
  1.25554984e+00  1.25672378e+00  1.26311564e+00  1.26792297e+00
  1.26964418e+00  1.27825448e+00  1.28362984e+00  1.28572830e+00
  1.28880264e+00  1.29674534e+00  1.29766868e+00  1.30215662e+00
  1.30538236e+00  1.30866871e+00  1.31245347e+00  1.31620023e+00
  1.32233281e+00  1.33081868e+00  1.33247389e+00  1.33550803e+00
  1.34002344e+00  1.34387203e+00  1.34528365e+00  1.35441329e+00
  1.35707640e+00  1.35794019e+00  1.36238518e+00  1.36546875e+00
  1.37604895e+00  1.37762515e+00  1.38169702e+00  1.38912844e+00
  1.39089181e+00  1.39244375e+00  1.39484721e+00  1.39720078e+00
  1.40239248e+00  1.40739622e+00  1.41577424e+00  1.42636778e+00
  1.42702513e+00  1.43048437e+00  1.43386796e+00  1.43799390e+00
  1.44713640e+00  1.45218216e+00  1.46101245e+00  1.46508639e+00
  1.46770420e+00  1.47467134e+00  1.47687453e+00  1.47959320e+00
  1.49069569e+00  1.49560826e+00  1.50525034e+00  1.51850867e+00
  1.52824327e+00  1.53626219e+00  1.54842014e+00  1.55442269e+00
  1.56240414e+00  1.57457293e+00  1.58231053e+00  1.59823467e+00
  1.60534901e+00  1.63866109e+00  1.64892281e+00  1.67417535e+00
  1.69006059e+00  1.70360454e+00  1.76446723e+00  1.81915339e+00
  1.87921124e+00  1.90868257e+00  1.91629928e+00  1.95827316e+00
  1.99736485e+00  2.01836875e+00  2.08643633e+00  2.12901186e+00
  2.17538773e+00  2.26188751e+00  2.29846560e+00  2.35591378e+00
  2.41824286e+00  2.44957689e+00  2.48987434e+00  2.49150251e+00
  2.52923211e+00  2.56171839e+00  2.63298504e+00  2.68957241e+00
  2.70925239e+00  2.73686789e+00  2.80125699e+00  2.81177848e+00
  2.85089498e+00  2.88352158e+00  2.88936653e+00  2.90389427e+00
  2.99360909e+00  3.02613978e+00  3.04252804e+00  3.07997171e+00
  3.12947151e+00  3.14131414e+00  3.16396738e+00  3.19815906e+00
  3.21959830e+00  3.24631262e+00  3.28456860e+00  3.29840829e+00
  3.31120668e+00  3.31564422e+00  3.33451921e+00  3.35229288e+00
  3.36136043e+00  3.36504921e+00  3.37148509e+00  3.40213491e+00
  3.41826273e+00  3.43234541e+00  3.46151787e+00  3.47068822e+00
  3.47435627e+00  3.49130934e+00  3.49743368e+00  3.52134431e+00
  3.52487009e+00  3.54724320e+00  3.55071332e+00  3.58028685e+00
  3.59602391e+00  3.62985842e+00  3.68821315e+00  3.71213186e+00
  3.72105139e+00  3.78416949e+00  3.78889227e+00  3.79150644e+00
  3.82100595e+00  3.85322515e+00  3.86330608e+00  3.87182632e+00
  3.87252877e+00  3.91045416e+00  3.94003669e+00  3.96545482e+00
  3.97261286e+00  3.98607282e+00  4.04150663e+00  4.06001684e+00
  4.07288246e+00  4.09351417e+00  4.11378475e+00  4.17307208e+00
  4.26318898e+00  4.29565830e+00  4.30323147e+00  4.31386401e+00
  4.40017946e+00  4.40814067e+00  4.41271485e+00  4.44955269e+00
  4.45497044e+00  4.51916854e+00  4.53194005e+00  4.53934785e+00
  4.67085420e+00  4.69368318e+00  4.70109347e+00  4.73777348e+00
  4.79157899e+00  4.83719441e+00  4.84905142e+00  4.96315047e+00
  5.02811821e+00  5.06701134e+00  5.10014810e+00  5.15897523e+00
  5.19258509e+00  5.34039818e+00  5.34851257e+00  5.41386351e+00
  5.45521054e+00  5.50468596e+00  5.50832548e+00  5.54612767e+00
  5.59621151e+00  5.62284453e+00  5.62912222e+00  5.70199885e+00
  5.77086769e+00  5.77333422e+00  5.86415938e+00  5.89421006e+00
  5.99867457e+00  6.01386397e+00  6.10523841e+00  6.13180372e+00
  6.13624385e+00  6.15947976e+00  6.21799655e+00  6.22471544e+00
  6.30090617e+00  6.40577870e+00  6.46366971e+00  6.47876774e+00
  6.49022253e+00  6.60773206e+00  6.66264666e+00  6.73842367e+00
  6.81877291e+00  6.86764320e+00  6.91834745e+00  6.99078977e+00
  7.01906207e+00  7.06244726e+00  7.12789573e+00  7.21610803e+00
  7.24312542e+00  7.31535975e+00  7.35843335e+00  7.35975346e+00
  7.44107332e+00  7.47832102e+00  7.53756330e+00  7.54232676e+00
  7.76277830e+00  7.77569555e+00  7.95325582e+00  8.01317400e+00
  8.10601378e+00  8.47481871e+00  1.12149009e+01  1.31393974e+01
  1.33735588e+01  1.40998596e+01  1.59158728e+01  1.75304217e+01]
E1 = -1798.9089297157022  E_coul = 748.2605446524798
cycle= 4 E= -459.760568018053  delta_E= -0.00728  |g|= 0.0475  |ddm|= 0.31
    CPU time for cycle= 4    242.22 sec, wall time      7.61 sec
diis-norm(errvec)=0.241972
diis-c [-0.03572473 -0.06216777 -0.06014826  0.26654264  0.85577339]
  HOMO = -0.114615144616547  LUMO = -0.00680020971153545
  mo_energy =
[-2.06416706e+01 -2.06413094e+01 -2.05786070e+01 -1.14530031e+01
 -1.13084165e+01 -1.13073737e+01 -2.46688255e+00 -2.44450789e+00
 -2.43816132e+00 -2.43751932e+00 -2.43357810e+00 -2.43354675e+00
 -2.43242470e+00 -2.43231153e+00 -2.43126921e+00 -2.43108691e+00
 -2.42263098e+00 -2.41151849e+00 -2.40987855e+00 -2.40395862e+00
 -2.40161445e+00 -2.40130011e+00 -1.63690886e+00 -1.48732667e+00
 -1.46896841e+00 -1.12935721e+00 -9.83529096e-01 -8.96089979e-01
 -8.30562097e-01 -8.05803249e-01 -7.48228256e-01 -7.22452067e-01
 -6.84483278e-01 -6.77276889e-01 -6.09743090e-01 -5.83895874e-01
 -5.42750315e-01 -5.27520884e-01 -5.03631743e-01 -2.80130850e-01
 -2.21656364e-01 -2.20247290e-01 -1.77030314e-01 -1.63613090e-01
 -1.49819552e-01 -1.38659868e-01 -1.14615145e-01 -6.80020971e-03
  3.85630947e-03  9.31265387e-03  1.14810047e-02  1.27403618e-02
  1.75544143e-02  2.37364359e-02  2.70229780e-02  3.18621941e-02
  3.24774785e-02  3.49955639e-02  3.57873915e-02  3.99437320e-02
  4.07303655e-02  4.63514721e-02  4.76137451e-02  5.11018597e-02
  5.31726269e-02  6.07586519e-02  6.27938122e-02  6.35445698e-02
  6.40771808e-02  6.65562312e-02  6.84825639e-02  7.03578093e-02
  7.14436229e-02  7.29119112e-02  7.70720885e-02  7.76960665e-02
  7.82278536e-02  8.04220323e-02  8.21375247e-02  8.26457804e-02
  8.51288709e-02  8.73162953e-02  8.86885403e-02  8.95906294e-02
  9.04765903e-02  9.10020202e-02  9.13050591e-02  9.29191034e-02
  9.39859791e-02  9.88656609e-02  9.94725316e-02  1.01469637e-01
  1.07760773e-01  1.07983317e-01  1.09622340e-01  1.09945211e-01
  1.15007007e-01  1.16265907e-01  1.20697585e-01  1.21983136e-01
  1.22668136e-01  1.22876897e-01  1.27142887e-01  1.32971138e-01
  1.34731710e-01  1.38297087e-01  1.42868414e-01  1.43829936e-01
  1.48012056e-01  1.48286486e-01  1.51544209e-01  1.56763979e-01
  1.60182562e-01  1.60870205e-01  1.62236942e-01  1.65661891e-01
  1.66504183e-01  1.68261978e-01  1.69338731e-01  1.70684436e-01
  1.77229281e-01  1.78964351e-01  1.79848853e-01  1.81680872e-01
  1.84281485e-01  1.86375354e-01  1.87650220e-01  1.93654750e-01
  1.98233928e-01  1.99392312e-01  2.02472676e-01  2.06163119e-01
  2.06955157e-01  2.09656941e-01  2.12498046e-01  2.13308304e-01
  2.15463211e-01  2.18193796e-01  2.20587398e-01  2.20865084e-01
  2.24829204e-01  2.26095818e-01  2.29263303e-01  2.30184195e-01
  2.31432019e-01  2.32263853e-01  2.35378858e-01  2.36844746e-01
  2.38380413e-01  2.42564354e-01  2.44648260e-01  2.49152645e-01
  2.53872570e-01  2.56732122e-01  2.59901455e-01  2.63503586e-01
  2.67543535e-01  2.70234274e-01  2.70706753e-01  2.73108610e-01
  2.74047284e-01  2.76221364e-01  2.79784068e-01  2.80430508e-01
  2.85315679e-01  2.90953673e-01  2.92712803e-01  3.02881055e-01
  3.07071932e-01  3.08408770e-01  3.11111554e-01  3.17460326e-01
  3.19684459e-01  3.20487132e-01  3.24466118e-01  3.27017326e-01
  3.32621667e-01  3.33517002e-01  3.34285961e-01  3.35854769e-01
  3.37373819e-01  3.37969244e-01  3.43754696e-01  3.46288910e-01
  3.48535253e-01  3.53563687e-01  3.55113850e-01  3.56520587e-01
  3.60912954e-01  3.63769137e-01  3.67924653e-01  3.68816522e-01
  3.71549370e-01  3.73894578e-01  3.82048737e-01  3.87117662e-01
  3.88384934e-01  3.91155693e-01  3.92176866e-01  3.99433386e-01
  4.01287672e-01  4.04412603e-01  4.05526727e-01  4.11014402e-01
  4.16139122e-01  4.18186474e-01  4.19611139e-01  4.22021666e-01
  4.22661339e-01  4.27219616e-01  4.28237590e-01  4.29768353e-01
  4.33816386e-01  4.37619779e-01  4.38737370e-01  4.40833471e-01
  4.43323984e-01  4.44282933e-01  4.46723342e-01  4.47559302e-01
  4.52149839e-01  4.55051890e-01  4.56770727e-01  4.58637709e-01
  4.61984412e-01  4.62790446e-01  4.65571946e-01  4.68880339e-01
  4.70977665e-01  4.74645018e-01  4.79228687e-01  4.82649368e-01
  4.84694231e-01  4.87464942e-01  4.88111466e-01  4.94274580e-01
  4.96244039e-01  4.98211966e-01  4.99683981e-01  5.02454020e-01
  5.05504719e-01  5.06036404e-01  5.08052414e-01  5.10337418e-01
  5.12183616e-01  5.16526180e-01  5.19223674e-01  5.22745390e-01
  5.24375362e-01  5.24754248e-01  5.29938403e-01  5.31740316e-01
  5.34018247e-01  5.38005715e-01  5.40394505e-01  5.41779971e-01
  5.45956215e-01  5.46866544e-01  5.47980805e-01  5.50469096e-01
  5.54118610e-01  5.55254883e-01  5.62014241e-01  5.66501641e-01
  5.70174440e-01  5.70621842e-01  5.72559166e-01  5.73805940e-01
  5.81433940e-01  5.83611822e-01  5.84847812e-01  5.85391730e-01
  5.86811129e-01  5.92581636e-01  5.95858838e-01  5.97160620e-01
  5.99899155e-01  6.01608489e-01  6.08250911e-01  6.13460465e-01
  6.17407000e-01  6.25281964e-01  6.28565749e-01  6.32696476e-01
  6.38043766e-01  6.41985132e-01  6.43858157e-01  6.48616753e-01
  6.52975107e-01  6.56525401e-01  6.63216673e-01  6.64542877e-01
  6.70965142e-01  6.73040521e-01  6.75506596e-01  6.79866976e-01
  6.82917713e-01  6.88672295e-01  6.90233781e-01  6.95483429e-01
  7.04339966e-01  7.10078648e-01  7.11927295e-01  7.16455610e-01
  7.20225816e-01  7.23160846e-01  7.25037712e-01  7.30048001e-01
  7.34326255e-01  7.36175470e-01  7.38534661e-01  7.39645966e-01
  7.42679121e-01  7.46433351e-01  7.47943107e-01  7.49420113e-01
  7.50244262e-01  7.52168908e-01  7.56906810e-01  7.59056386e-01
  7.61866026e-01  7.66032685e-01  7.66824243e-01  7.71933885e-01
  7.74134535e-01  7.78089369e-01  7.80657994e-01  7.81937973e-01
  7.84783464e-01  7.85975801e-01  7.88359865e-01  7.91274906e-01
  7.94441048e-01  7.95179233e-01  7.98633985e-01  8.03143477e-01
  8.08289783e-01  8.10548001e-01  8.13711626e-01  8.16490848e-01
  8.17993403e-01  8.22018226e-01  8.23472656e-01  8.27891502e-01
  8.31728768e-01  8.34370655e-01  8.34892265e-01  8.36012260e-01
  8.41640146e-01  8.44198696e-01  8.45353057e-01  8.45531261e-01
  8.48702053e-01  8.50235596e-01  8.56518040e-01  8.59522382e-01
  8.61235153e-01  8.62692808e-01  8.70238721e-01  8.72485823e-01
  8.74618610e-01  8.78194841e-01  8.79846461e-01  8.82575875e-01
  8.86375224e-01  8.87400793e-01  8.91656143e-01  8.94990611e-01
  8.96538560e-01  8.97579907e-01  9.01582817e-01  9.03759453e-01
  9.04695443e-01  9.07482867e-01  9.08913740e-01  9.13741547e-01
  9.16140296e-01  9.21742692e-01  9.23805695e-01  9.25646369e-01
  9.27481575e-01  9.30718723e-01  9.34182458e-01  9.35584007e-01
  9.41150855e-01  9.42675272e-01  9.43585420e-01  9.45893108e-01
  9.48078690e-01  9.48356459e-01  9.53237491e-01  9.57140226e-01
  9.59007396e-01  9.60927273e-01  9.62276073e-01  9.66082811e-01
  9.68510057e-01  9.73025428e-01  9.75715149e-01  9.81160550e-01
  9.83571052e-01  9.84607885e-01  9.85302026e-01  9.87603941e-01
  9.91273353e-01  9.94289597e-01  1.00197818e+00  1.00402756e+00
  1.00960018e+00  1.01188900e+00  1.01580861e+00  1.01853410e+00
  1.01972712e+00  1.02319287e+00  1.02556044e+00  1.03281608e+00
  1.03811238e+00  1.03893874e+00  1.04108178e+00  1.04664284e+00
  1.04748406e+00  1.05260688e+00  1.05343731e+00  1.05894938e+00
  1.06181355e+00  1.06218548e+00  1.06495267e+00  1.07016485e+00
  1.07072900e+00  1.07291868e+00  1.07744567e+00  1.07811836e+00
  1.08271495e+00  1.08396302e+00  1.08704483e+00  1.09386384e+00
  1.09675331e+00  1.09850932e+00  1.10159115e+00  1.10378942e+00
  1.10609055e+00  1.11289264e+00  1.11518985e+00  1.11914366e+00
  1.11983003e+00  1.12485677e+00  1.12948170e+00  1.12983789e+00
  1.13486455e+00  1.13777234e+00  1.14347148e+00  1.14787959e+00
  1.15366602e+00  1.15769726e+00  1.16263204e+00  1.17038850e+00
  1.17254821e+00  1.17576076e+00  1.18314761e+00  1.18846779e+00
  1.18978525e+00  1.19519723e+00  1.20023142e+00  1.20354962e+00
  1.21003253e+00  1.21230897e+00  1.21797275e+00  1.22051994e+00
  1.22215076e+00  1.22596874e+00  1.22786713e+00  1.22925063e+00
  1.23421722e+00  1.23828662e+00  1.24304553e+00  1.24828417e+00
  1.25185957e+00  1.25341094e+00  1.25959558e+00  1.26422830e+00
  1.26578988e+00  1.27405749e+00  1.27995840e+00  1.28207035e+00
  1.28524237e+00  1.29293616e+00  1.29378836e+00  1.29769792e+00
  1.30132480e+00  1.30451864e+00  1.30795636e+00  1.31157522e+00
  1.31832264e+00  1.32684922e+00  1.32810731e+00  1.33011816e+00
[...]
  5.06643739e-01  5.06868363e-01  5.08712784e-01  5.11327785e-01
  5.12782063e-01  5.17448226e-01  5.19238863e-01  5.23117280e-01
  5.25680256e-01  5.25926590e-01  5.31672162e-01  5.32547811e-01
  5.35291569e-01  5.38697342e-01  5.41454221e-01  5.42493055e-01
  5.46180516e-01  5.47392543e-01  5.49230245e-01  5.50729125e-01
  5.55384333e-01  5.56357319e-01  5.63746527e-01  5.67131972e-01
  5.70699262e-01  5.71168570e-01  5.73424725e-01  5.75054881e-01
  5.82174914e-01  5.84937017e-01  5.86347801e-01  5.86801861e-01
  5.88124343e-01  5.93926984e-01  5.97311687e-01  5.98504582e-01
  6.00391837e-01  6.01836720e-01  6.08532173e-01  6.15662825e-01
  6.18221646e-01  6.25611529e-01  6.29941867e-01  6.33627578e-01
  6.40090894e-01  6.42194745e-01  6.44610670e-01  6.50261112e-01
  6.53547804e-01  6.58201451e-01  6.63692093e-01  6.66666866e-01
  6.71325934e-01  6.73560627e-01  6.75957333e-01  6.80399465e-01
  6.83358267e-01  6.89134758e-01  6.91025193e-01  6.95807401e-01
  7.04424248e-01  7.10958830e-01  7.12857250e-01  7.17430877e-01
  7.20528372e-01  7.23566083e-01  7.25375213e-01  7.32478766e-01
  7.35462803e-01  7.37283497e-01  7.39649271e-01  7.40470814e-01
  7.43978439e-01  7.47283080e-01  7.49798024e-01  7.51158988e-01
  7.52377204e-01  7.54196922e-01  7.58236026e-01  7.60390243e-01
  7.63346461e-01  7.67871482e-01  7.68686013e-01  7.73773238e-01
  7.76717410e-01  7.79442055e-01  7.82757668e-01  7.83000353e-01
  7.86160160e-01  7.87375536e-01  7.89836191e-01  7.92669652e-01
  7.96358120e-01  7.97149403e-01  8.00212064e-01  8.05813204e-01
  8.10273171e-01  8.12520469e-01  8.15432643e-01  8.18195807e-01
  8.19790368e-01  8.24368361e-01  8.26741724e-01  8.29576240e-01
  8.32582453e-01  8.35013636e-01  8.35457134e-01  8.36969073e-01
  8.43724836e-01  8.45296971e-01  8.46080880e-01  8.48786314e-01
  8.49892907e-01  8.51956596e-01  8.57292581e-01  8.60418791e-01
  8.63114127e-01  8.63828096e-01  8.71544126e-01  8.74179291e-01
  8.77001664e-01  8.79984445e-01  8.82462824e-01  8.83994960e-01
  8.88053286e-01  8.90153764e-01  8.93476506e-01  8.96218080e-01
  8.98461599e-01  9.01247510e-01  9.03584438e-01  9.06072144e-01
  9.06573927e-01  9.08953859e-01  9.10872670e-01  9.14948517e-01
  9.16576328e-01  9.23301843e-01  9.24379211e-01  9.26540325e-01
  9.28913687e-01  9.31657628e-01  9.34755906e-01  9.37053279e-01
  9.42115409e-01  9.43591170e-01  9.45718498e-01  9.47754303e-01
  9.49730481e-01  9.49934249e-01  9.54488346e-01  9.58621374e-01
  9.60427164e-01  9.61948289e-01  9.64209420e-01  9.67474999e-01
  9.69908753e-01  9.73930181e-01  9.77106801e-01  9.82815439e-01
  9.84518155e-01  9.86126220e-01  9.87340604e-01  9.89130795e-01
  9.92038517e-01  9.95412121e-01  1.00283165e+00  1.00542364e+00
  1.01094961e+00  1.01290440e+00  1.01725096e+00  1.01914962e+00
  1.02170602e+00  1.02479771e+00  1.02608307e+00  1.03418297e+00
  1.03927305e+00  1.04028454e+00  1.04287667e+00  1.04688906e+00
  1.04915300e+00  1.05350135e+00  1.05405325e+00  1.06075971e+00
  1.06215419e+00  1.06225563e+00  1.06560389e+00  1.07106273e+00
  1.07208122e+00  1.07350337e+00  1.07818708e+00  1.07947419e+00
  1.08471814e+00  1.08550604e+00  1.08796859e+00  1.09505041e+00
  1.09733697e+00  1.09926053e+00  1.10259277e+00  1.10419746e+00
  1.10704571e+00  1.11399765e+00  1.11609974e+00  1.12055964e+00
  1.12116705e+00  1.12647206e+00  1.13111263e+00  1.13176300e+00
  1.13688753e+00  1.13908974e+00  1.14473419e+00  1.14966159e+00
  1.15495503e+00  1.15919456e+00  1.16395474e+00  1.17099877e+00
  1.17380488e+00  1.17726345e+00  1.18448597e+00  1.18990820e+00
  1.19097658e+00  1.19652868e+00  1.20182139e+00  1.20562590e+00
  1.21183941e+00  1.21374378e+00  1.21887719e+00  1.22133407e+00
  1.22292700e+00  1.22679039e+00  1.22868915e+00  1.22953040e+00
  1.23497694e+00  1.23920459e+00  1.24408396e+00  1.24929338e+00
  1.25319855e+00  1.25500301e+00  1.26033641e+00  1.26478584e+00
  1.26725730e+00  1.27447977e+00  1.28068709e+00  1.28300044e+00
  1.28644144e+00  1.29375638e+00  1.29460241e+00  1.29886787e+00
  1.30277284e+00  1.30541454e+00  1.30856261e+00  1.31321459e+00
  1.31862810e+00  1.32757986e+00  1.32867155e+00  1.33064599e+00
  1.33629021e+00  1.34037399e+00  1.34243458e+00  1.35118785e+00
  1.35291292e+00  1.35420095e+00  1.35927925e+00  1.36131779e+00
  1.37149343e+00  1.37623748e+00  1.37751764e+00  1.38530395e+00
  1.38659346e+00  1.38939492e+00  1.39132545e+00  1.39422215e+00
  1.39876322e+00  1.40460306e+00  1.41278285e+00  1.42308539e+00
  1.42579672e+00  1.42802853e+00  1.43089576e+00  1.43521650e+00
  1.44326654e+00  1.44821460e+00  1.45883997e+00  1.46135957e+00
  1.46330735e+00  1.47147528e+00  1.47307859e+00  1.47609439e+00
  1.48725681e+00  1.49218996e+00  1.50065697e+00  1.51346649e+00
  1.52520842e+00  1.53212698e+00  1.54355030e+00  1.55039545e+00
  1.55724107e+00  1.56935062e+00  1.57950993e+00  1.59483551e+00
  1.60095768e+00  1.63265245e+00  1.64367681e+00  1.67169594e+00
  1.68694971e+00  1.69726197e+00  1.76003601e+00  1.81667110e+00
  1.87433974e+00  1.90292418e+00  1.91077108e+00  1.95163383e+00
  1.99132497e+00  2.01502528e+00  2.08280928e+00  2.12217389e+00
  2.17168855e+00  2.25690206e+00  2.29596627e+00  2.35285034e+00
  2.41407904e+00  2.44440874e+00  2.48175380e+00  2.48757808e+00
  2.52445606e+00  2.55627562e+00  2.62932225e+00  2.68393134e+00
  2.70182115e+00  2.73144097e+00  2.79433384e+00  2.80717190e+00
  2.84350222e+00  2.87813377e+00  2.88320968e+00  2.89890106e+00
  2.98724430e+00  3.01812197e+00  3.04029742e+00  3.07412037e+00
  3.12275680e+00  3.13581272e+00  3.15823535e+00  3.19327884e+00
  3.21381459e+00  3.24050557e+00  3.29049226e+00  3.30258697e+00
  3.30732104e+00  3.31037252e+00  3.33018683e+00  3.34421215e+00
  3.35871198e+00  3.36949855e+00  3.37542699e+00  3.39406399e+00
  3.41791735e+00  3.42641241e+00  3.45705543e+00  3.46781958e+00
  3.47337630e+00  3.48757579e+00  3.49357983e+00  3.51665658e+00
  3.52178312e+00  3.54237326e+00  3.54680337e+00  3.57558816e+00
  3.59058831e+00  3.62467093e+00  3.68185739e+00  3.70640260e+00
  3.71498838e+00  3.77769191e+00  3.78393855e+00  3.78753959e+00
  3.81451702e+00  3.84930515e+00  3.85967712e+00  3.86718433e+00
  3.87003804e+00  3.90730116e+00  3.93414302e+00  3.95975667e+00
  3.96865876e+00  3.98228347e+00  4.03820962e+00  4.05647944e+00
  4.06963085e+00  4.09096188e+00  4.10838651e+00  4.16865499e+00
  4.26081144e+00  4.29408996e+00  4.30232532e+00  4.30965501e+00
  4.39193320e+00  4.40296354e+00  4.40851376e+00  4.44411853e+00
  4.45213120e+00  4.51690527e+00  4.53075324e+00  4.53656353e+00
  4.66681595e+00  4.69010936e+00  4.69432151e+00  4.72937553e+00
  4.78648734e+00  4.83373645e+00  4.84778019e+00  4.95853063e+00
  5.02557954e+00  5.06483691e+00  5.09714365e+00  5.15574655e+00
  5.18822150e+00  5.33743859e+00  5.34554588e+00  5.41041616e+00
  5.45220512e+00  5.50057505e+00  5.50553409e+00  5.54289750e+00
  5.58803384e+00  5.61477185e+00  5.62442269e+00  5.69830772e+00
  5.76730083e+00  5.77030614e+00  5.86127849e+00  5.89090979e+00
  5.99697660e+00  6.00923056e+00  6.10206677e+00  6.12530039e+00
  6.13220667e+00  6.15624381e+00  6.21529490e+00  6.22131986e+00
  6.29752177e+00  6.40323758e+00  6.46093366e+00  6.47649017e+00
  6.48804965e+00  6.60528345e+00  6.65901632e+00  6.73351539e+00
  6.81346250e+00  6.86413997e+00  6.91518359e+00  6.98404679e+00
  7.01141447e+00  7.05538323e+00  7.12058785e+00  7.21525397e+00
  7.24241891e+00  7.31453704e+00  7.36038714e+00  7.36233266e+00
  7.43996450e+00  7.47307424e+00  7.53790201e+00  7.53991128e+00
  7.76063011e+00  7.77756790e+00  7.94690983e+00  8.01191484e+00
  8.10697652e+00  8.46758662e+00  1.12114479e+01  1.31330084e+01
  1.33757841e+01  1.40925706e+01  1.59065667e+01  1.75164484e+01]
E1 = -1799.1974898702997  E_coul = 748.5444647300335
cycle= 24 E= -459.765208095097  delta_E= -4.98e-10  |g|= 4.12e-06  |ddm|= 0.00014
    CPU time for cycle= 24    243.91 sec, wall time      7.67 sec
  HOMO = -0.114155610555271  LUMO = -0.00479892296284624
  mo_energy =
[-2.06458941e+01 -2.06458391e+01 -2.05833115e+01 -1.14521136e+01
 -1.13082133e+01 -1.13071700e+01 -2.46120803e+00 -2.44336352e+00
 -2.44238367e+00 -2.43480026e+00 -2.43165801e+00 -2.43137715e+00
 -2.42798838e+00 -2.42772275e+00 -2.42720624e+00 -2.42716927e+00
 -2.42315555e+00 -2.41459022e+00 -2.40471236e+00 -2.40288952e+00
 -2.39790223e+00 -2.39772174e+00 -1.63785748e+00 -1.48888571e+00
 -1.47006909e+00 -1.12978836e+00 -9.84446806e-01 -8.97062609e-01
 -8.31246021e-01 -8.07224102e-01 -7.49141278e-01 -7.23923995e-01
 -6.85148523e-01 -6.78216777e-01 -6.10967506e-01 -5.84438605e-01
 -5.45058711e-01 -5.28871062e-01 -5.04600430e-01 -2.77320773e-01
 -2.20205519e-01 -2.17578093e-01 -1.76718824e-01 -1.64393748e-01
 -1.50312792e-01 -1.38257395e-01 -1.14155611e-01 -4.79892296e-03
  7.12216154e-03  1.15663776e-02  1.32356750e-02  1.41796262e-02
  1.92898409e-02  2.44449142e-02  2.82855991e-02  3.17830447e-02
  3.28278522e-02  3.52198889e-02  3.68366843e-02  4.04402145e-02
  4.13699339e-02  4.68602279e-02  4.73780779e-02  5.20603739e-02
  5.35123031e-02  6.08674436e-02  6.38178215e-02  6.40191041e-02
  6.42515628e-02  6.73987587e-02  6.88751638e-02  7.12951056e-02
  7.19842245e-02  7.37167157e-02  7.69163841e-02  7.78444046e-02
  7.85906555e-02  8.07792327e-02  8.24723194e-02  8.26324879e-02
  8.57238823e-02  8.74442888e-02  9.00024806e-02  9.04086059e-02
  9.11739785e-02  9.16411154e-02  9.20195921e-02  9.23782227e-02
  9.42203240e-02  9.84536634e-02  9.98166341e-02  1.01270644e-01
  1.07754959e-01  1.08126266e-01  1.10317348e-01  1.10783189e-01
  1.15181884e-01  1.16110099e-01  1.19704257e-01  1.21237979e-01
  1.22837819e-01  1.23485909e-01  1.27051925e-01  1.33507455e-01
  1.35246335e-01  1.38286134e-01  1.42801697e-01  1.43759100e-01
  1.48106355e-01  1.48531016e-01  1.52558077e-01  1.56984816e-01
  1.59978800e-01  1.60966732e-01  1.62667371e-01  1.66057325e-01
  1.66756346e-01  1.69177115e-01  1.70195155e-01  1.71785732e-01
  1.77505257e-01  1.79031738e-01  1.80458160e-01  1.81889171e-01
  1.84748707e-01  1.88044606e-01  1.88826834e-01  1.94251995e-01
  1.98921261e-01  2.01028011e-01  2.03176544e-01  2.07256478e-01
  2.08622992e-01  2.10026066e-01  2.12897961e-01  2.13361286e-01
  2.15628359e-01  2.17974708e-01  2.19953099e-01  2.21057895e-01
  2.25957387e-01  2.26649015e-01  2.29977143e-01  2.31180639e-01
  2.32091762e-01  2.32605302e-01  2.36004079e-01  2.37135544e-01
  2.39338573e-01  2.43487687e-01  2.45143719e-01  2.49505036e-01
  2.54825578e-01  2.57405819e-01  2.60237818e-01  2.64327018e-01
  2.68423411e-01  2.70495442e-01  2.70610001e-01  2.73207391e-01
  2.75798786e-01  2.78074771e-01  2.80175739e-01  2.81264234e-01
  2.85408156e-01  2.92150246e-01  2.93721391e-01  3.04519354e-01
  3.08267552e-01  3.08917366e-01  3.11400849e-01  3.17861166e-01
  3.20612880e-01  3.21228690e-01  3.25751510e-01  3.27084885e-01
  3.33771465e-01  3.34508721e-01  3.34882672e-01  3.37004078e-01
  3.37584023e-01  3.40311476e-01  3.43990872e-01  3.46761788e-01
  3.48877247e-01  3.54059149e-01  3.55493682e-01  3.56766007e-01
  3.61800207e-01  3.63881170e-01  3.68170251e-01  3.69336517e-01
  3.71769540e-01  3.74483150e-01  3.81974406e-01  3.88447754e-01
  3.89551156e-01  3.92268252e-01  3.92720688e-01  4.00075193e-01
  4.02703937e-01  4.04472042e-01  4.06508153e-01  4.12404857e-01
  4.16967684e-01  4.18858223e-01  4.20151985e-01  4.23140728e-01
  4.24078351e-01  4.28550513e-01  4.30323529e-01  4.31515676e-01
  4.33740802e-01  4.38494811e-01  4.38930218e-01  4.41247965e-01
  4.43981978e-01  4.45782848e-01  4.47791207e-01  4.48562442e-01
  4.53455078e-01  4.55855475e-01  4.57529013e-01  4.60267139e-01
  4.62161551e-01  4.63038946e-01  4.66082574e-01  4.70035635e-01
  4.71741786e-01  4.74893782e-01  4.79404344e-01  4.83669248e-01
  4.85599996e-01  4.88093269e-01  4.88857448e-01  4.95382398e-01
  4.96653026e-01  4.98283280e-01  4.99418869e-01  5.03768176e-01
  5.06643313e-01  5.06867924e-01  5.08712514e-01  5.11327361e-01
  5.12781728e-01  5.17447841e-01  5.19238553e-01  5.23116982e-01
  5.25679841e-01  5.25926185e-01  5.31671789e-01  5.32547410e-01
  5.35291264e-01  5.38696950e-01  5.41453755e-01  5.42492679e-01
  5.46180209e-01  5.47392123e-01  5.49229877e-01  5.50728866e-01
  5.55383958e-01  5.56356767e-01  5.63745983e-01  5.67131587e-01
  5.70698853e-01  5.71168193e-01  5.73424271e-01  5.75054504e-01
  5.82174488e-01  5.84936625e-01  5.86347325e-01  5.86801416e-01
  5.88123857e-01  5.93926598e-01  5.97311226e-01  5.98504031e-01
  6.00391475e-01  6.01836326e-01  6.08531796e-01  6.15662422e-01
  6.18221361e-01  6.25611373e-01  6.29941484e-01  6.33627255e-01
  6.40090504e-01  6.42194497e-01  6.44610307e-01  6.50260790e-01
  6.53547573e-01  6.58201043e-01  6.63691763e-01  6.66666590e-01
  6.71325438e-01  6.73560253e-01  6.75956921e-01  6.80398904e-01
  6.83357834e-01  6.89134392e-01  6.91024702e-01  6.95807089e-01
  7.04423963e-01  7.10958355e-01  7.12856722e-01  7.17430418e-01
  7.20527997e-01  7.23565654e-01  7.25374845e-01  7.32478240e-01
  7.35462244e-01  7.37283047e-01  7.39648755e-01  7.40470318e-01
  7.43977917e-01  7.47282577e-01  7.49797589e-01  7.51158553e-01
  7.52376718e-01  7.54196481e-01  7.58235497e-01  7.60389794e-01
  7.63346032e-01  7.67870995e-01  7.68685602e-01  7.73772880e-01
  7.76716893e-01  7.79441652e-01  7.82757222e-01  7.82999876e-01
  7.86159828e-01  7.87375013e-01  7.89835824e-01  7.92669191e-01
  7.96357651e-01  7.97148973e-01  8.00211660e-01  8.05812833e-01
  8.10272840e-01  8.12520059e-01  8.15432279e-01  8.18195506e-01
  8.19790030e-01  8.24367993e-01  8.26741283e-01  8.29575774e-01
  8.32582077e-01  8.35013345e-01  8.35456753e-01  8.36968637e-01
  8.43724461e-01  8.45296767e-01  8.46080569e-01  8.48785993e-01
  8.49892631e-01  8.51956235e-01  8.57292237e-01  8.60418455e-01
  8.63113785e-01  8.63827653e-01  8.71543761e-01  8.74178863e-01
  8.77001153e-01  8.79984040e-01  8.82462299e-01  8.83994548e-01
  8.88052831e-01  8.90153314e-01  8.93476028e-01  8.96217654e-01
  8.98461132e-01  9.01247016e-01  9.03583935e-01  9.06071695e-01
  9.06573407e-01  9.08953472e-01  9.10872296e-01  9.14948087e-01
  9.16575942e-01  9.23301410e-01  9.24378870e-01  9.26539869e-01
  9.28913218e-01  9.31657206e-01  9.34755536e-01  9.37052899e-01
  9.42114954e-01  9.43590800e-01  9.45718018e-01  9.47753893e-01
  9.49730029e-01  9.49933751e-01  9.54487944e-01  9.58621042e-01
  9.60426709e-01  9.61947898e-01  9.64208993e-01  9.67474594e-01
  9.69908329e-01  9.73929760e-01  9.77106322e-01  9.82814957e-01
  9.84517717e-01  9.86125754e-01  9.87340249e-01  9.89130249e-01
  9.92038014e-01  9.95411704e-01  1.00283124e+00  1.00542314e+00
  1.01094899e+00  1.01290382e+00  1.01725043e+00  1.01914927e+00
  1.02170554e+00  1.02479725e+00  1.02608269e+00  1.03418257e+00
  1.03927256e+00  1.04028408e+00  1.04287618e+00  1.04688861e+00
  1.04915255e+00  1.05350091e+00  1.05405277e+00  1.06075919e+00
  1.06215376e+00  1.06225523e+00  1.06560337e+00  1.07106221e+00
  1.07208072e+00  1.07350284e+00  1.07818656e+00  1.07947369e+00
  1.08471759e+00  1.08550542e+00  1.08796810e+00  1.09504990e+00
  1.09733642e+00  1.09925997e+00  1.10259218e+00  1.10419694e+00
  1.10704524e+00  1.11399710e+00  1.11609929e+00  1.12055908e+00
  1.12116653e+00  1.12647159e+00  1.13111212e+00  1.13176248e+00
  1.13688704e+00  1.13908926e+00  1.14473370e+00  1.14966110e+00
  1.15495452e+00  1.15919405e+00  1.16395427e+00  1.17099829e+00
  1.17380434e+00  1.17726290e+00  1.18448543e+00  1.18990774e+00
  1.19097615e+00  1.19652815e+00  1.20182078e+00  1.20562526e+00
  1.21183881e+00  1.21374331e+00  1.21887673e+00  1.22133364e+00
  1.22292652e+00  1.22678983e+00  1.22868862e+00  1.22952991e+00
  1.23497628e+00  1.23920399e+00  1.24408338e+00  1.24929281e+00
  1.25319796e+00  1.25500246e+00  1.26033585e+00  1.26478531e+00
  1.26725668e+00  1.27447916e+00  1.28068652e+00  1.28299989e+00
  1.28644088e+00  1.29375580e+00  1.29460182e+00  1.29886722e+00
  1.30277221e+00  1.30541391e+00  1.30856204e+00  1.31321390e+00
  1.31862754e+00  1.32757927e+00  1.32867093e+00  1.33064527e+00
  1.33628954e+00  1.34037327e+00  1.34243386e+00  1.35118706e+00
  1.35291225e+00  1.35420025e+00  1.35927847e+00  1.36131714e+00
  1.37149272e+00  1.37623665e+00  1.37751694e+00  1.38530319e+00
  1.38659277e+00  1.38939422e+00  1.39132473e+00  1.39422145e+00
  1.39876251e+00  1.40460240e+00  1.41278235e+00  1.42308476e+00
  1.42579623e+00  1.42802805e+00  1.43089521e+00  1.43521580e+00
  1.44326606e+00  1.44821395e+00  1.45883956e+00  1.46135891e+00
  1.46330665e+00  1.47147449e+00  1.47307789e+00  1.47609352e+00
  1.48725606e+00  1.49218929e+00  1.50065629e+00  1.51346570e+00
  1.52520800e+00  1.53212628e+00  1.54354955e+00  1.55039462e+00
  1.55724047e+00  1.56934995e+00  1.57950967e+00  1.59483514e+00
  1.60095700e+00  1.63265178e+00  1.64367616e+00  1.67169561e+00
  1.68694947e+00  1.69726140e+00  1.76003561e+00  1.81667096e+00
  1.87433927e+00  1.90292372e+00  1.91077061e+00  1.95163299e+00
  1.99132438e+00  2.01502520e+00  2.08280912e+00  2.12217305e+00
  2.17168825e+00  2.25690165e+00  2.29596626e+00  2.35285017e+00
  2.41407882e+00  2.44440832e+00  2.48175332e+00  2.48757782e+00
  2.52445577e+00  2.55627538e+00  2.62932218e+00  2.68393111e+00
  2.70182063e+00  2.73144082e+00  2.79433327e+00  2.80717172e+00
  2.84350193e+00  2.87813360e+00  2.88320934e+00  2.89890090e+00
  2.98724390e+00  3.01812165e+00  3.04029700e+00  3.07412023e+00
  3.12275644e+00  3.13581258e+00  3.15823501e+00  3.19327869e+00
  3.21381440e+00  3.24050542e+00  3.29049195e+00  3.30258671e+00
  3.30732090e+00  3.31037242e+00  3.33018662e+00  3.34421179e+00
  3.35871177e+00  3.36949843e+00  3.37542688e+00  3.39406373e+00
  3.41791714e+00  3.42641214e+00  3.45705516e+00  3.46781921e+00
  3.47337579e+00  3.48757537e+00  3.49357951e+00  3.51665614e+00
  3.52178270e+00  3.54237302e+00  3.54680315e+00  3.57558794e+00
  3.59058772e+00  3.62467076e+00  3.68185711e+00  3.70640237e+00
  3.71498800e+00  3.77769137e+00  3.78393848e+00  3.78753848e+00
  3.81451670e+00  3.84930426e+00  3.85967616e+00  3.86718416e+00
  3.87003784e+00  3.90730099e+00  3.93414270e+00  3.95975605e+00
  3.96865865e+00  3.98228324e+00  4.03820944e+00  4.05647920e+00
  4.06963069e+00  4.09096167e+00  4.10838623e+00  4.16865477e+00
  4.26081130e+00  4.29408977e+00  4.30232536e+00  4.30965481e+00
  4.39193221e+00  4.40296325e+00  4.40851349e+00  4.44411828e+00
  4.45213100e+00  4.51690523e+00  4.53075312e+00  4.53656342e+00
  4.66681579e+00  4.69010899e+00  4.69432122e+00  4.72937432e+00
  4.78648662e+00  4.83373616e+00  4.84778024e+00  4.95853058e+00
  5.02557950e+00  5.06483699e+00  5.09714357e+00  5.15574644e+00
  5.18822115e+00  5.33743857e+00  5.34554590e+00  5.41041600e+00
  5.45220502e+00  5.50057468e+00  5.50553398e+00  5.54289738e+00
  5.58803261e+00  5.61477067e+00  5.62442233e+00  5.69830748e+00
  5.76730073e+00  5.77030606e+00  5.86127849e+00  5.89090957e+00
  5.99697674e+00  6.00923024e+00  6.10206680e+00  6.12529970e+00
  6.13220662e+00  6.15624390e+00  6.21529490e+00  6.22131983e+00
  6.29752175e+00  6.40323772e+00  6.46093376e+00  6.47649029e+00
  6.48804976e+00  6.60528347e+00  6.65901635e+00  6.73351505e+00
  6.81346193e+00  6.86413990e+00  6.91518348e+00  6.98404581e+00
  7.01141319e+00  7.05538255e+00  7.12058717e+00  7.21525407e+00
  7.24241906e+00  7.31453727e+00  7.36038752e+00  7.36233320e+00
  7.43996428e+00  7.47307349e+00  7.53790152e+00  7.53991172e+00
  7.76062986e+00  7.77756836e+00  7.94690903e+00  8.01191474e+00
  8.10697687e+00  8.46758603e+00  1.12114478e+01  1.31330081e+01
  1.33757848e+01  1.40925704e+01  1.59065666e+01  1.75164473e+01]
E1 = -1799.1975119311837  E_coul = 748.5444867908612
Extra cycle  E= -459.765208095153  delta_E= -5.62e-11  |g|= 3.27e-06  |ddm|= 2.39e-05
    CPU time for scf_cycle   7367.89 sec, wall time    232.02 sec
    CPU time for SCF   7367.93 sec, wall time    232.03 sec
converged SCF energy = -459.765208095153
