#INFO: **** input file is /burg/ccce/users/eav2136/projects/batteries/01_mp2/hf_script.py ****
#!/usr/bin/env python3
from pyscf import gto, scf, mp
import sys
from fileutils import dump
import h5py

mol = gto.Mole()
mol.verbose = 10
mol.atom = f"geom_{sys.argv[1]}.xyz"
mol.basis = "ccpvtz"
mol.unit = "ANG"
mol.build()

mf = scf.RHF(mol)
conv, e_tot, mo_energy, mo_coeff, mo_occ = mf.kernel()

dataout = {}
dataout["e_tot"] = e_tot
dataout["conv"] = conv
dump(dataout, f"data/hf_geom_{sys.argv[1]}.json")

with h5py.File(f"data/hf_geom_{sys.argv[1]}.h5", "w") as f:
    f.create_dataset("mo_energy", data=mo_energy)
    f.create_dataset("mo_coeff", data=mo_coeff)#INFO: ******************** input file end ********************


System: uname_result(system='Linux', node='g144', release='4.18.0-193.el8.x86_64', version='#1 SMP Fri Mar 27 14:35:58 UTC 2020', machine='x86_64')  Threads 32
Python 3.10.12 (main, Jul 29 2023, 11:27:27) [GCC 13.2.0]
numpy 1.25.1  scipy 1.10.1
Date: Fri Jan 19 10:48:50 2024
PySCF version 2.0.1
PySCF path  /burg/berkelbach/users/eav2136/builds/pyscf/projected-cvs/pyscf
GIT ORIG_HEAD 0bfbc692adf3ea63b8a509210433219cd1c472a2
GIT HEAD (branch projected-cvs) e14caaa2dddc538b9be2d86f01e5b456fc92da36

[ENV] PYSCF_TMPDIR /burg/ccce/users/eav2136/projects/batteries/01_mp2/tmp
[ENV] PYSCF_MAX_MEMORY 700000
[CONFIG] DEBUG = False
[CONFIG] MAX_MEMORY = 700000
[CONFIG] TMPDIR = /burg/ccce/users/eav2136/projects/batteries/01_mp2/tmp
[CONFIG] UNIT = angstrom
[CONFIG] VERBOSE = 3
[CONFIG] conf_file = None
[INPUT] verbose = 10
[INPUT] max_memory = 700000 
[INPUT] num. atoms = 24
[INPUT] num. electrons = 88
[INPUT] charge = 0
[INPUT] spin (= nelec alpha-beta = 2S) = 0
[INPUT] symmetry False subgroup None
[INPUT] Mole.unit = ANG
[INPUT]  1 C      4.889700000000   4.599650000000  10.258310000000 AA    9.240193831286   8.692078768856  19.385396400887 Bohr
[INPUT]  2 O      4.870170000000   4.245790000000   8.952570000000 AA    9.203287480073   8.023380282417  16.917905410997 Bohr
[INPUT]  3 C      5.310840000000   5.193710000000   8.233300000000 AA   10.036033091385   9.814689470415  15.558682101382 Bohr
[INPUT]  4 O      5.765780000000   6.111200000000   8.982240000000 AA   10.895745094495  11.548494292442  16.973973585113 Bohr
[INPUT]  5 C      5.774150000000   5.702340000000  10.272330000000 AA   10.911562102157  10.775860869152  19.411890361153 Bohr
[INPUT]  6 O      5.299720000000   5.216150000000   7.112960000000 AA   10.015019336880   9.857094924650  13.441546334986 Bohr
[INPUT]  7 H      5.212360000000   3.798320000000  10.814180000000 AA    9.849932862638   7.177784533458  20.435838461749 Bohr
[INPUT]  8 H      3.953110000000   4.871240000000  10.548100000000 AA    7.470295240279   9.205309487026  19.933020134525 Bohr
[INPUT]  9 H      5.464720000000   6.479910000000  10.867980000000 AA   10.326824147433  12.245255211830  20.537505727251 Bohr
[INPUT] 10 H      6.716790000000   5.418990000000  10.529430000000 AA   12.692893536217  10.240406971757  19.897738947779 Bohr
[INPUT] 11 Li     5.263950000000   5.263950000000   5.263950000000 AA    9.947423833404   9.947423833404   9.947423833404 Bohr
[INPUT] 12 Li     5.263950000000   1.754650000000   5.263950000000 AA    9.947423833404   3.315807944468   9.947423833404 Bohr
[INPUT] 13 Li     8.773250000000   5.263950000000   5.263950000000 AA   16.579039722340   9.947423833404   9.947423833404 Bohr
[INPUT] 14 Li     1.754650000000   5.263950000000   5.263950000000 AA    3.315807944468   9.947423833404   9.947423833404 Bohr
[INPUT] 15 Li     5.263950000000   8.773250000000   5.263950000000 AA    9.947423833404  16.579039722340   9.947423833404 Bohr
[INPUT] 16 Li     7.018600000000   3.509300000000   3.509300000000 AA   13.263231777872   6.631615888936   6.631615888936 Bohr
[INPUT] 17 Li     3.509300000000   3.509300000000   3.509300000000 AA    6.631615888936   6.631615888936   6.631615888936 Bohr
[INPUT] 18 Li     7.018600000000   7.018600000000   3.509300000000 AA   13.263231777872  13.263231777872   6.631615888936 Bohr
[INPUT] 19 Li     3.509300000000   7.018600000000   3.509300000000 AA    6.631615888936  13.263231777872   6.631615888936 Bohr
[INPUT] 20 Li     8.773250000000   1.754650000000   5.263950000000 AA   16.579039722340   3.315807944468   9.947423833404 Bohr
[INPUT] 21 Li     1.754650000000   1.754650000000   5.263950000000 AA    3.315807944468   3.315807944468   9.947423833404 Bohr
[INPUT] 22 Li     8.773250000000   8.773250000000   5.263950000000 AA   16.579039722340  16.579039722340   9.947423833404 Bohr
[INPUT] 23 Li     1.754650000000   8.773250000000   5.263950000000 AA    3.315807944468  16.579039722340   9.947423833404 Bohr
[INPUT] 24 Li     5.263950000000   5.263950000000   1.754650000000 AA    9.947423833404   9.947423833404   3.315807944468 Bohr
[INPUT] ---------------- BASIS SET ---------------- 
[INPUT] l, kappa, [nprim/nctr], expnt,             c_1 c_2 ...
[INPUT] O
[INPUT] 0    0    [8    /2   ]  15330             0.000508 -0.000115
                                2299              0.003929 -0.000895
                                522.4             0.020243 -0.004636
                                147.3             0.079181 -0.018724
                                47.55             0.230687 -0.058463
                                16.76             0.433118 -0.136463
                                6.207             0.35026 -0.17574
                                0.6882            -0.008154 0.603418
[INPUT] 0    0    [1    /1   ]  1.752                1
[INPUT] 0    0    [1    /1   ]  0.2384               1
[INPUT] 1    0    [3    /1   ]  34.46             0.015928
                                7.749             0.09974
                                2.28              0.310492
[INPUT] 1    0    [1    /1   ]  0.7156               1
[INPUT] 1    0    [1    /1   ]  0.214                1
[INPUT] 2    0    [1    /1   ]  2.314                1
[INPUT] 2    0    [1    /1   ]  0.645                1
[INPUT] 3    0    [1    /1   ]  1.428                1
[INPUT] Li
[INPUT] 0    0    [9    /2   ]  5988              0.000133 -2.1e-05
                                898.9             0.001025 -0.000161
                                205.9             0.005272 -0.00082
                                59.24             0.020929 -0.003326
                                19.87             0.06634 -0.010519
                                7.406             0.165775 -0.028097
                                2.93              0.315038 -0.055936
                                1.189             0.393523 -0.099237
                                0.4798            0.19087 -0.112189
[INPUT] 0    0    [1    /1   ]  0.07509              1
[INPUT] 0    0    [1    /1   ]  0.02832              1
[INPUT] 1    0    [3    /1   ]  3.266             0.00863
                                0.6511            0.047538
                                0.1696            0.209772
[INPUT] 1    0    [1    /1   ]  0.05578              1
[INPUT] 1    0    [1    /1   ]  0.0205               1
[INPUT] 2    0    [1    /1   ]  0.1874               1
[INPUT] 2    0    [1    /1   ]  0.0801               1
[INPUT] 3    0    [1    /1   ]  0.1829               1
[INPUT] H
[INPUT] 0    0    [3    /1   ]  33.87             0.006068
                                5.095             0.045308
                                1.159             0.202822
[INPUT] 0    0    [1    /1   ]  0.3258               1
[INPUT] 0    0    [1    /1   ]  0.1027               1
[INPUT] 1    0    [1    /1   ]  1.407                1
[INPUT] 1    0    [1    /1   ]  0.388                1
[INPUT] 2    0    [1    /1   ]  1.057                1
[INPUT] C
[INPUT] 0    0    [8    /2   ]  8236              0.000531 -0.000113
                                1235              0.004108 -0.000878
                                280.8             0.021087 -0.00454
                                79.27             0.081853 -0.018133
                                25.59             0.234817 -0.05576
                                8.997             0.434401 -0.126895
                                3.319             0.346129 -0.170352
                                0.3643            -0.008983 0.598684
[INPUT] 0    0    [1    /1   ]  0.9059               1
[INPUT] 0    0    [1    /1   ]  0.1285               1
[INPUT] 1    0    [3    /1   ]  18.71             0.014031
                                4.133             0.086866
                                1.2               0.290216
[INPUT] 1    0    [1    /1   ]  0.3827               1
[INPUT] 1    0    [1    /1   ]  0.1209               1
[INPUT] 2    0    [1    /1   ]  1.097                1
[INPUT] 2    0    [1    /1   ]  0.318                1
[INPUT] 3    0    [1    /1   ]  0.761                1

nuclear repulsion = 544.279710728703
number of shells = 204
number of NR pGTOs = 918
number of NR cGTOs = 656
basis = ccpvtz
ecp = {}
bas 0, expnt(s) = [8.236e+03 1.235e+03 2.808e+02 7.927e+01 2.559e+01 8.997e+00 3.319e+00
 3.643e-01]
bas 1, expnt(s) = [0.9059]
bas 2, expnt(s) = [0.1285]
bas 3, expnt(s) = [18.71   4.133  1.2  ]
bas 4, expnt(s) = [0.3827]
bas 5, expnt(s) = [0.1209]
bas 6, expnt(s) = [1.097]
bas 7, expnt(s) = [0.318]
bas 8, expnt(s) = [0.761]
bas 9, expnt(s) = [1.533e+04 2.299e+03 5.224e+02 1.473e+02 4.755e+01 1.676e+01 6.207e+00
 6.882e-01]
bas 10, expnt(s) = [1.752]
bas 11, expnt(s) = [0.2384]
bas 12, expnt(s) = [34.46   7.749  2.28 ]
bas 13, expnt(s) = [0.7156]
bas 14, expnt(s) = [0.214]
bas 15, expnt(s) = [2.314]
bas 16, expnt(s) = [0.645]
bas 17, expnt(s) = [1.428]
bas 18, expnt(s) = [8.236e+03 1.235e+03 2.808e+02 7.927e+01 2.559e+01 8.997e+00 3.319e+00
 3.643e-01]
bas 19, expnt(s) = [0.9059]
bas 20, expnt(s) = [0.1285]
bas 21, expnt(s) = [18.71   4.133  1.2  ]
bas 22, expnt(s) = [0.3827]
bas 23, expnt(s) = [0.1209]
bas 24, expnt(s) = [1.097]
bas 25, expnt(s) = [0.318]
bas 26, expnt(s) = [0.761]
bas 27, expnt(s) = [1.533e+04 2.299e+03 5.224e+02 1.473e+02 4.755e+01 1.676e+01 6.207e+00
 6.882e-01]
bas 28, expnt(s) = [1.752]
bas 29, expnt(s) = [0.2384]
bas 30, expnt(s) = [34.46   7.749  2.28 ]
bas 31, expnt(s) = [0.7156]
bas 32, expnt(s) = [0.214]
bas 33, expnt(s) = [2.314]
bas 34, expnt(s) = [0.645]
bas 35, expnt(s) = [1.428]
bas 36, expnt(s) = [8.236e+03 1.235e+03 2.808e+02 7.927e+01 2.559e+01 8.997e+00 3.319e+00
 3.643e-01]
bas 37, expnt(s) = [0.9059]
bas 38, expnt(s) = [0.1285]
bas 39, expnt(s) = [18.71   4.133  1.2  ]
bas 40, expnt(s) = [0.3827]
bas 41, expnt(s) = [0.1209]
bas 42, expnt(s) = [1.097]
bas 43, expnt(s) = [0.318]
bas 44, expnt(s) = [0.761]
bas 45, expnt(s) = [1.533e+04 2.299e+03 5.224e+02 1.473e+02 4.755e+01 1.676e+01 6.207e+00
 6.882e-01]
bas 46, expnt(s) = [1.752]
bas 47, expnt(s) = [0.2384]
bas 48, expnt(s) = [34.46   7.749  2.28 ]
bas 49, expnt(s) = [0.7156]
bas 50, expnt(s) = [0.214]
bas 51, expnt(s) = [2.314]
bas 52, expnt(s) = [0.645]
bas 53, expnt(s) = [1.428]
bas 54, expnt(s) = [33.87   5.095  1.159]
bas 55, expnt(s) = [0.3258]
bas 56, expnt(s) = [0.1027]
bas 57, expnt(s) = [1.407]
bas 58, expnt(s) = [0.388]
bas 59, expnt(s) = [1.057]
bas 60, expnt(s) = [33.87   5.095  1.159]
bas 61, expnt(s) = [0.3258]
bas 62, expnt(s) = [0.1027]
bas 63, expnt(s) = [1.407]
bas 64, expnt(s) = [0.388]
bas 65, expnt(s) = [1.057]
bas 66, expnt(s) = [33.87   5.095  1.159]
bas 67, expnt(s) = [0.3258]
bas 68, expnt(s) = [0.1027]
bas 69, expnt(s) = [1.407]
bas 70, expnt(s) = [0.388]
bas 71, expnt(s) = [1.057]
bas 72, expnt(s) = [33.87   5.095  1.159]
bas 73, expnt(s) = [0.3258]
bas 74, expnt(s) = [0.1027]
bas 75, expnt(s) = [1.407]
bas 76, expnt(s) = [0.388]
bas 77, expnt(s) = [1.057]
bas 78, expnt(s) = [5.988e+03 8.989e+02 2.059e+02 5.924e+01 1.987e+01 7.406e+00 2.930e+00
 1.189e+00 4.798e-01]
bas 79, expnt(s) = [0.07509]
bas 80, expnt(s) = [0.02832]
bas 81, expnt(s) = [3.266  0.6511 0.1696]
bas 82, expnt(s) = [0.05578]
bas 83, expnt(s) = [0.0205]
bas 84, expnt(s) = [0.1874]
bas 85, expnt(s) = [0.0801]
bas 86, expnt(s) = [0.1829]
bas 87, expnt(s) = [5.988e+03 8.989e+02 2.059e+02 5.924e+01 1.987e+01 7.406e+00 2.930e+00
 1.189e+00 4.798e-01]
bas 88, expnt(s) = [0.07509]
bas 89, expnt(s) = [0.02832]
bas 90, expnt(s) = [3.266  0.6511 0.1696]
bas 91, expnt(s) = [0.05578]
bas 92, expnt(s) = [0.0205]
bas 93, expnt(s) = [0.1874]
bas 94, expnt(s) = [0.0801]
bas 95, expnt(s) = [0.1829]
bas 96, expnt(s) = [5.988e+03 8.989e+02 2.059e+02 5.924e+01 1.987e+01 7.406e+00 2.930e+00
 1.189e+00 4.798e-01]
bas 97, expnt(s) = [0.07509]
bas 98, expnt(s) = [0.02832]
bas 99, expnt(s) = [3.266  0.6511 0.1696]
bas 100, expnt(s) = [0.05578]
bas 101, expnt(s) = [0.0205]
bas 102, expnt(s) = [0.1874]
bas 103, expnt(s) = [0.0801]
bas 104, expnt(s) = [0.1829]
bas 105, expnt(s) = [5.988e+03 8.989e+02 2.059e+02 5.924e+01 1.987e+01 7.406e+00 2.930e+00
 1.189e+00 4.798e-01]
bas 106, expnt(s) = [0.07509]
bas 107, expnt(s) = [0.02832]
bas 108, expnt(s) = [3.266  0.6511 0.1696]
bas 109, expnt(s) = [0.05578]
bas 110, expnt(s) = [0.0205]
bas 111, expnt(s) = [0.1874]
bas 112, expnt(s) = [0.0801]
bas 113, expnt(s) = [0.1829]
bas 114, expnt(s) = [5.988e+03 8.989e+02 2.059e+02 5.924e+01 1.987e+01 7.406e+00 2.930e+00
 1.189e+00 4.798e-01]
bas 115, expnt(s) = [0.07509]
bas 116, expnt(s) = [0.02832]
bas 117, expnt(s) = [3.266  0.6511 0.1696]
bas 118, expnt(s) = [0.05578]
bas 119, expnt(s) = [0.0205]
bas 120, expnt(s) = [0.1874]
bas 121, expnt(s) = [0.0801]
bas 122, expnt(s) = [0.1829]
bas 123, expnt(s) = [5.988e+03 8.989e+02 2.059e+02 5.924e+01 1.987e+01 7.406e+00 2.930e+00
 1.189e+00 4.798e-01]
bas 124, expnt(s) = [0.07509]
bas 125, expnt(s) = [0.02832]
bas 126, expnt(s) = [3.266  0.6511 0.1696]
bas 127, expnt(s) = [0.05578]
bas 128, expnt(s) = [0.0205]
bas 129, expnt(s) = [0.1874]
bas 130, expnt(s) = [0.0801]
bas 131, expnt(s) = [0.1829]
bas 132, expnt(s) = [5.988e+03 8.989e+02 2.059e+02 5.924e+01 1.987e+01 7.406e+00 2.930e+00
 1.189e+00 4.798e-01]
bas 133, expnt(s) = [0.07509]
bas 134, expnt(s) = [0.02832]
bas 135, expnt(s) = [3.266  0.6511 0.1696]
bas 136, expnt(s) = [0.05578]
bas 137, expnt(s) = [0.0205]
bas 138, expnt(s) = [0.1874]
bas 139, expnt(s) = [0.0801]
bas 140, expnt(s) = [0.1829]
bas 141, expnt(s) = [5.988e+03 8.989e+02 2.059e+02 5.924e+01 1.987e+01 7.406e+00 2.930e+00
 1.189e+00 4.798e-01]
bas 142, expnt(s) = [0.07509]
bas 143, expnt(s) = [0.02832]
bas 144, expnt(s) = [3.266  0.6511 0.1696]
bas 145, expnt(s) = [0.05578]
bas 146, expnt(s) = [0.0205]
bas 147, expnt(s) = [0.1874]
bas 148, expnt(s) = [0.0801]
bas 149, expnt(s) = [0.1829]
bas 150, expnt(s) = [5.988e+03 8.989e+02 2.059e+02 5.924e+01 1.987e+01 7.406e+00 2.930e+00
 1.189e+00 4.798e-01]
bas 151, expnt(s) = [0.07509]
bas 152, expnt(s) = [0.02832]
bas 153, expnt(s) = [3.266  0.6511 0.1696]
bas 154, expnt(s) = [0.05578]
bas 155, expnt(s) = [0.0205]
bas 156, expnt(s) = [0.1874]
bas 157, expnt(s) = [0.0801]
bas 158, expnt(s) = [0.1829]
bas 159, expnt(s) = [5.988e+03 8.989e+02 2.059e+02 5.924e+01 1.987e+01 7.406e+00 2.930e+00
 1.189e+00 4.798e-01]
bas 160, expnt(s) = [0.07509]
bas 161, expnt(s) = [0.02832]
bas 162, expnt(s) = [3.266  0.6511 0.1696]
bas 163, expnt(s) = [0.05578]
bas 164, expnt(s) = [0.0205]
bas 165, expnt(s) = [0.1874]
bas 166, expnt(s) = [0.0801]
bas 167, expnt(s) = [0.1829]
bas 168, expnt(s) = [5.988e+03 8.989e+02 2.059e+02 5.924e+01 1.987e+01 7.406e+00 2.930e+00
 1.189e+00 4.798e-01]
bas 169, expnt(s) = [0.07509]
bas 170, expnt(s) = [0.02832]
bas 171, expnt(s) = [3.266  0.6511 0.1696]
bas 172, expnt(s) = [0.05578]
bas 173, expnt(s) = [0.0205]
bas 174, expnt(s) = [0.1874]
bas 175, expnt(s) = [0.0801]
bas 176, expnt(s) = [0.1829]
bas 177, expnt(s) = [5.988e+03 8.989e+02 2.059e+02 5.924e+01 1.987e+01 7.406e+00 2.930e+00
 1.189e+00 4.798e-01]
bas 178, expnt(s) = [0.07509]
bas 179, expnt(s) = [0.02832]
bas 180, expnt(s) = [3.266  0.6511 0.1696]
bas 181, expnt(s) = [0.05578]
bas 182, expnt(s) = [0.0205]
bas 183, expnt(s) = [0.1874]
bas 184, expnt(s) = [0.0801]
bas 185, expnt(s) = [0.1829]
bas 186, expnt(s) = [5.988e+03 8.989e+02 2.059e+02 5.924e+01 1.987e+01 7.406e+00 2.930e+00
 1.189e+00 4.798e-01]
bas 187, expnt(s) = [0.07509]
bas 188, expnt(s) = [0.02832]
bas 189, expnt(s) = [3.266  0.6511 0.1696]
bas 190, expnt(s) = [0.05578]
bas 191, expnt(s) = [0.0205]
bas 192, expnt(s) = [0.1874]
bas 193, expnt(s) = [0.0801]
bas 194, expnt(s) = [0.1829]
bas 195, expnt(s) = [5.988e+03 8.989e+02 2.059e+02 5.924e+01 1.987e+01 7.406e+00 2.930e+00
 1.189e+00 4.798e-01]
bas 196, expnt(s) = [0.07509]
bas 197, expnt(s) = [0.02832]
bas 198, expnt(s) = [3.266  0.6511 0.1696]
bas 199, expnt(s) = [0.05578]
bas 200, expnt(s) = [0.0205]
bas 201, expnt(s) = [0.1874]
bas 202, expnt(s) = [0.0801]
bas 203, expnt(s) = [0.1829]
CPU time:         0.68
arg.atm = [[  6  20   1  23   0   0]
 [  8  24   1  27   0   0]
 [  6  28   1  31   0   0]
 [  8  32   1  35   0   0]
 [  6  36   1  39   0   0]
 [  8  40   1  43   0   0]
 [  1  44   1  47   0   0]
 [  1  48   1  51   0   0]
 [  1  52   1  55   0   0]
 [  1  56   1  59   0   0]
 [  3  60   1  63   0   0]
 [  3  64   1  67   0   0]
 [  3  68   1  71   0   0]
 [  3  72   1  75   0   0]
 [  3  76   1  79   0   0]
 [  3  80   1  83   0   0]
 [  3  84   1  87   0   0]
 [  3  88   1  91   0   0]
 [  3  92   1  95   0   0]
 [  3  96   1  99   0   0]
 [  3 100   1 103   0   0]
 [  3 104   1 107   0   0]
 [  3 108   1 111   0   0]
 [  3 112   1 115   0   0]]
arg.bas = [[  0   0   8 ... 223 231   0]
 [  0   0   1 ... 247 248   0]
 [  0   0   1 ... 249 250   0]
 ...
 [ 23   2   1 ... 201 202   0]
 [ 23   2   1 ... 203 204   0]
 [ 23   3   1 ... 205 206   0]]
arg.env = [ 0.00000000e+00  0.00000000e+00  0.00000000e+00  0.00000000e+00
  0.00000000e+00  0.00000000e+00  0.00000000e+00  0.00000000e+00
  0.00000000e+00  0.00000000e+00  0.00000000e+00  0.00000000e+00
  0.00000000e+00  0.00000000e+00  0.00000000e+00  0.00000000e+00
  0.00000000e+00  0.00000000e+00  0.00000000e+00  0.00000000e+00
  9.24019383e+00  8.69207877e+00  1.93853964e+01  0.00000000e+00
  9.20328748e+00  8.02338028e+00  1.69179054e+01  0.00000000e+00
  1.00360331e+01  9.81468947e+00  1.55586821e+01  0.00000000e+00
  1.08957451e+01  1.15484943e+01  1.69739736e+01  0.00000000e+00
  1.09115621e+01  1.07758609e+01  1.94118904e+01  0.00000000e+00
  1.00150193e+01  9.85709492e+00  1.34415463e+01  0.00000000e+00
  9.84993286e+00  7.17778453e+00  2.04358385e+01  0.00000000e+00
  7.47029524e+00  9.20530949e+00  1.99330201e+01  0.00000000e+00
  1.03268241e+01  1.22452552e+01  2.05375057e+01  0.00000000e+00
  1.26928935e+01  1.02404070e+01  1.98977389e+01  0.00000000e+00
  9.94742383e+00  9.94742383e+00  9.94742383e+00  0.00000000e+00
  9.94742383e+00  3.31580794e+00  9.94742383e+00  0.00000000e+00
  1.65790397e+01  9.94742383e+00  9.94742383e+00  0.00000000e+00
  3.31580794e+00  9.94742383e+00  9.94742383e+00  0.00000000e+00
  9.94742383e+00  1.65790397e+01  9.94742383e+00  0.00000000e+00
  1.32632318e+01  6.63161589e+00  6.63161589e+00  0.00000000e+00
  6.63161589e+00  6.63161589e+00  6.63161589e+00  0.00000000e+00
  1.32632318e+01  1.32632318e+01  6.63161589e+00  0.00000000e+00
  6.63161589e+00  1.32632318e+01  6.63161589e+00  0.00000000e+00
  1.65790397e+01  3.31580794e+00  9.94742383e+00  0.00000000e+00
  3.31580794e+00  3.31580794e+00  9.94742383e+00  0.00000000e+00
  1.65790397e+01  1.65790397e+01  9.94742383e+00  0.00000000e+00
  3.31580794e+00  1.65790397e+01  9.94742383e+00  0.00000000e+00
  9.94742383e+00  9.94742383e+00  3.31580794e+00  0.00000000e+00
  1.53300000e+04  2.29900000e+03  5.22400000e+02  1.47300000e+02
  4.75500000e+01  1.67600000e+01  6.20700000e+00  6.88200000e-01
  1.81067529e+00  3.37486577e+00  5.72265412e+00  8.66150357e+00
  1.08070276e+01  9.28179538e+00  3.56346173e+00 -1.59395830e-02
 -6.86527364e-01 -1.28759909e+00 -2.19507417e+00 -3.43047366e+00
 -4.58719692e+00 -4.89805685e+00 -2.99457591e+00  1.97563931e+00
  1.75200000e+00  3.84738459e+00  2.38400000e-01  8.61975084e-01
  3.44600000e+01  7.74900000e+00  2.28000000e+00  1.00262994e+01
  9.72213774e+00  6.55849668e+00  7.15600000e-01  1.92009319e+00
  2.14000000e-01  4.24621137e-01  2.31400000e+00  1.13283134e+01
  6.45000000e-01  1.21132000e+00  1.42800000e+00  4.39692268e+00
  5.98800000e+03  8.98900000e+02  2.05900000e+02  5.92400000e+01
  1.98700000e+01  7.40600000e+00  2.93000000e+00  1.18900000e+00
  4.79800000e-01  2.29069316e-01  4.25756548e-01  7.25056076e-01
  1.13074246e+00  1.57971158e+00  1.88304523e+00  1.78512072e+00
  1.13373211e+00  2.78411257e-01 -1.33552750e-01 -2.46934407e-01
 -4.16416863e-01 -6.63522613e-01 -9.24900580e-01 -1.17847379e+00
 -1.17034612e+00 -1.05567981e+00 -6.04251387e-01  7.50900000e-02
  3.62411193e-01  2.83200000e-02  1.74415453e-01  3.26600000e+00
  6.51100000e-01  1.69600000e-01  4.55280795e-01  3.34078737e-01
  2.74333054e-01  5.57800000e-02  7.90828897e-02  2.05000000e-02
  2.26295917e-02  1.87400000e-01  1.39275961e-01  8.01000000e-02
  3.14692425e-02  1.82900000e-01  4.31510332e-02  3.38700000e+01
  5.09500000e+00  1.15900000e+00  9.04334519e-01  1.63100455e+00
  2.40491525e+00  3.25800000e-01  1.08950276e+00  1.02700000e-01
  4.58345379e-01  1.40700000e+00  4.47045795e+00  3.88000000e-01
  8.93354953e-01  1.05700000e+00  2.87515071e+00  8.23600000e+03
  1.23500000e+03  2.80800000e+02  7.92700000e+01  2.55900000e+01
  8.99700000e+00  3.31900000e+00  3.64300000e-01  1.18480296e+00
  2.20874210e+00  3.73316324e+00  5.61216719e+00  6.89519583e+00
  5.82409515e+00  2.19663441e+00 -1.08712663e-02 -4.28969670e-01
 -8.03166571e-01 -1.36745981e+00 -2.11525239e+00 -2.78571299e+00
 -2.89453423e+00 -1.83934657e+00  1.23268730e+00  9.05900000e-01
  2.34598494e+00  1.28500000e-01  5.42241022e-01  1.87100000e+01
  4.13300000e+00  1.20000000e+00  4.47572721e+00  4.19627876e+00
  2.98800046e+00  3.82700000e-01  8.78127282e-01  1.20900000e-01
  2.07977938e-01  1.09700000e+00  3.06825171e+00  3.18000000e-01
  3.51379844e-01  7.61000000e-01  1.06690522e+00]
ecpbas  = []


******** <class 'pyscf.scf.hf.RHF'> ********
method = RHF
initial guess = minao
damping factor = 0
level_shift factor = 0
DIIS = <class 'pyscf.scf.diis.CDIIS'>
diis_start_cycle = 1
diis_space = 8
SCF conv_tol = 1e-09
SCF conv_tol_grad = None
SCF max_cycles = 50
direct_scf = True
direct_scf_tol = 1e-13
chkfile to save SCF result = /burg/ccce/users/eav2136/projects/batteries/01_mp2/tmp/tmp37t746dx
max_memory 700000 MB (current use 95 MB)
Set gradient conv threshold to 3.16228e-05
Nelec from initial guess = 87.99806814801396
E1 = -1683.0321302809177  E_coul = 690.4224762570536
init E= -448.329943295161
cond(S) = 206546.1235286019
    CPU time for initialize scf    945.33 sec, wall time     29.98 sec
  HOMO = -0.0897292087650323  LUMO = -0.0696751755632863
  mo_energy =
[-2.08436878e+01 -2.07936055e+01 -2.07926133e+01 -1.13786363e+01
 -1.13528401e+01 -1.13477196e+01 -2.51490310e+00 -2.50674727e+00
 -2.50420913e+00 -2.50420629e+00 -2.50365299e+00 -2.49813845e+00
 -2.49276303e+00 -2.49219535e+00 -2.49218812e+00 -2.49170466e+00
 -2.48549760e+00 -2.48541381e+00 -2.48539933e+00 -2.48529033e+00
 -2.16878551e+00 -1.79612146e+00 -1.65780918e+00 -1.33706681e+00
 -1.05211055e+00 -9.01184589e-01 -8.03084705e-01 -7.85123288e-01
 -6.88598280e-01 -6.62425481e-01 -6.21351349e-01 -5.69979988e-01
 -5.00301015e-01 -4.93900721e-01 -4.58833740e-01 -4.37863231e-01
 -4.04008278e-01 -3.24568027e-01 -2.63855033e-01 -2.63328134e-01
 -1.72745407e-01 -1.52892490e-01 -1.09351661e-01 -8.97292088e-02
 -6.96751756e-02 -6.95674564e-02 -3.29271134e-02 -3.25037986e-02
 -1.09216340e-02 -1.04276395e-02 -1.03109556e-02  2.59659642e-03
  2.76022583e-03  1.61208918e-02  2.28897168e-02  2.41980012e-02
  2.44582020e-02  2.98161692e-02  3.02523447e-02  3.86750543e-02
  3.95959644e-02  4.05758585e-02  4.41415478e-02  5.02906406e-02
  5.07837100e-02  5.18919930e-02  5.53971640e-02  5.55208826e-02
  5.80099921e-02  6.12813493e-02  6.39166209e-02  6.69278077e-02
  6.73598912e-02  6.77265026e-02  6.93757091e-02  6.94978437e-02
  7.21685044e-02  7.70493122e-02  7.73441455e-02  7.79204370e-02
  7.79944588e-02  7.83490603e-02  8.54035686e-02  8.55987058e-02
  8.61781354e-02  8.71817587e-02  9.36260006e-02  9.60910814e-02
  9.70336819e-02  1.03916936e-01  1.04437142e-01  1.04568644e-01
  1.06244664e-01  1.11252723e-01  1.14107681e-01  1.15302836e-01
  1.15631192e-01  1.18627357e-01  1.20173942e-01  1.22082031e-01
  1.22459220e-01  1.27246703e-01  1.32589873e-01  1.34551786e-01
  1.35121234e-01  1.36710204e-01  1.43227204e-01  1.45026479e-01
  1.47857799e-01  1.48871167e-01  1.52237903e-01  1.55809453e-01
  1.57500147e-01  1.59209612e-01  1.61919956e-01  1.66624592e-01
  1.67753879e-01  1.71634270e-01  1.72494142e-01  1.72640818e-01
  1.75292035e-01  1.84236685e-01  1.84490029e-01  1.86031991e-01
  1.86895493e-01  1.89328193e-01  1.93453171e-01  1.93523817e-01
  1.96717953e-01  2.00318351e-01  2.03187755e-01  2.07339146e-01
  2.07882381e-01  2.09997933e-01  2.12555074e-01  2.14763688e-01
  2.19082006e-01  2.22799459e-01  2.22971222e-01  2.29289747e-01
  2.30675328e-01  2.32079185e-01  2.35324815e-01  2.36021544e-01
  2.36907882e-01  2.39822007e-01  2.42535057e-01  2.43633825e-01
  2.44216421e-01  2.49441178e-01  2.56721143e-01  2.70421898e-01
  2.70949153e-01  2.74839848e-01  2.80476772e-01  2.81417934e-01
  2.85174744e-01  2.86869431e-01  2.90528611e-01  2.90760892e-01
  2.91535962e-01  2.94666140e-01  2.97157419e-01  2.99418292e-01
  3.01001904e-01  3.02530886e-01  3.12610260e-01  3.13391128e-01
  3.17974804e-01  3.20652484e-01  3.27247617e-01  3.28734696e-01
  3.40701780e-01  3.45609247e-01  3.47780716e-01  3.50893953e-01
  3.53296737e-01  3.54825602e-01  3.56239971e-01  3.56716500e-01
  3.62313384e-01  3.63592318e-01  3.64593819e-01  3.71308050e-01
  3.76065598e-01  3.79602784e-01  3.79801010e-01  3.82272729e-01
  3.84326761e-01  3.87684954e-01  3.88626879e-01  3.88975616e-01
  3.95748044e-01  3.97065432e-01  3.97873806e-01  3.99035494e-01
  4.01287410e-01  4.04716922e-01  4.08651656e-01  4.12309057e-01
  4.14314003e-01  4.15123868e-01  4.16554722e-01  4.17335521e-01
  4.23219129e-01  4.23744428e-01  4.42495384e-01  4.43918114e-01
  4.44956815e-01  4.45322058e-01  4.45981242e-01  4.49408984e-01
  4.50773881e-01  4.53067736e-01  4.60584033e-01  4.61668128e-01
  4.62638034e-01  4.63286260e-01  4.67661684e-01  4.70159845e-01
  4.70625114e-01  4.77854062e-01  4.79441795e-01  4.82554931e-01
  4.85452868e-01  4.87565832e-01  4.90542726e-01  4.91651165e-01
  4.95969894e-01  4.98979022e-01  5.03441930e-01  5.07626901e-01
  5.07928650e-01  5.12081635e-01  5.13970790e-01  5.19835445e-01
  5.24497558e-01  5.25412952e-01  5.28478742e-01  5.31734157e-01
  5.32613814e-01  5.34089475e-01  5.34564138e-01  5.35986247e-01
  5.37705072e-01  5.38329071e-01  5.40033372e-01  5.48127959e-01
  5.50374833e-01  5.64616246e-01  5.68725886e-01  5.72320110e-01
  5.76488313e-01  5.81296526e-01  5.83844002e-01  5.85382175e-01
  5.91760292e-01  5.96680159e-01  6.03794770e-01  6.07171000e-01
  6.07555623e-01  6.10765926e-01  6.14014209e-01  6.18572905e-01
  6.30416834e-01  6.32456829e-01  6.34315468e-01  6.35701668e-01
  6.39832318e-01  6.45790314e-01  6.52575957e-01  6.53349982e-01
  6.58805266e-01  6.61045520e-01  6.67012803e-01  6.73339598e-01
  6.76263964e-01  6.78600039e-01  6.80895931e-01  6.83874547e-01
  6.87485149e-01  6.89192612e-01  6.94167051e-01  6.94229585e-01
  6.96038997e-01  6.96639758e-01  6.99551220e-01  7.01249979e-01
  7.02938724e-01  7.07481023e-01  7.08877730e-01  7.10762108e-01
  7.14888623e-01  7.20741149e-01  7.22049599e-01  7.26259130e-01
  7.27169982e-01  7.30464572e-01  7.35718000e-01  7.36534637e-01
  7.42909584e-01  7.46078881e-01  7.53003177e-01  7.54862165e-01
  7.59772956e-01  7.62274677e-01  7.63520807e-01  7.66143252e-01
  7.70362148e-01  7.71639737e-01  7.73730898e-01  7.74932992e-01
  7.86205022e-01  7.89508131e-01  7.90927865e-01  7.95315483e-01
  7.97724631e-01  7.98166655e-01  8.14971478e-01  8.15387967e-01
  8.19728865e-01  8.21454991e-01  8.22347317e-01  8.25495900e-01
  8.29294727e-01  8.30026450e-01  8.30618579e-01  8.31196120e-01
  8.31376869e-01  8.32171895e-01  8.40637051e-01  8.45306634e-01
  8.49351605e-01  8.52331087e-01  8.53055373e-01  8.56854405e-01
  8.60006317e-01  8.63338372e-01  8.65932897e-01  8.66546626e-01
  8.69103505e-01  8.70839162e-01  8.72176657e-01  8.75718485e-01
  8.77596441e-01  8.80925925e-01  8.82793530e-01  8.92626149e-01
  8.98449406e-01  8.99527814e-01  9.00771324e-01  9.05461909e-01
  9.06338582e-01  9.07105625e-01  9.07631439e-01  9.12173285e-01
  9.15555286e-01  9.15873502e-01  9.20238736e-01  9.21852459e-01
  9.24784227e-01  9.25212165e-01  9.27100663e-01  9.32642764e-01
  9.34872541e-01  9.48996264e-01  9.54879597e-01  9.60321080e-01
  9.62138269e-01  9.64638487e-01  9.69195812e-01  9.71012573e-01
  9.71723038e-01  9.73504192e-01  9.77653015e-01  9.82011362e-01
  9.82748849e-01  9.85494635e-01  9.92434897e-01  9.96670312e-01
  1.00021600e+00  1.00265774e+00  1.00329348e+00  1.00949228e+00
  1.01338872e+00  1.01492286e+00  1.01974753e+00  1.02194635e+00
  1.02592165e+00  1.02806076e+00  1.02951757e+00  1.03144481e+00
  1.03439713e+00  1.03969713e+00  1.04048604e+00  1.04473946e+00
  1.05425205e+00  1.05593399e+00  1.06417783e+00  1.06798665e+00
  1.07135382e+00  1.07307817e+00  1.08063645e+00  1.08323672e+00
  1.08979248e+00  1.10178531e+00  1.10958447e+00  1.11182314e+00
  1.11687572e+00  1.12305894e+00  1.12370753e+00  1.12748887e+00
  1.12858573e+00  1.13462005e+00  1.13575731e+00  1.13768488e+00
  1.13899534e+00  1.14175918e+00  1.14737419e+00  1.14756951e+00
  1.15527392e+00  1.15629397e+00  1.16879087e+00  1.17128072e+00
  1.17934891e+00  1.18315442e+00  1.18888389e+00  1.18983574e+00
  1.19228129e+00  1.19668659e+00  1.20369592e+00  1.20517982e+00
  1.20765880e+00  1.21114568e+00  1.21744357e+00  1.21989410e+00
  1.22316704e+00  1.23421713e+00  1.23865637e+00  1.24514824e+00
  1.24562992e+00  1.25091227e+00  1.25728117e+00  1.26184625e+00
  1.26495066e+00  1.26830914e+00  1.26948253e+00  1.27631874e+00
  1.27774791e+00  1.29030511e+00  1.29242585e+00  1.29376428e+00
  1.29886925e+00  1.30190690e+00  1.31080587e+00  1.31154788e+00
  1.31663494e+00  1.31999025e+00  1.32267575e+00  1.32679997e+00
  1.33258649e+00  1.34053826e+00  1.34628373e+00  1.35870178e+00
  1.36232057e+00  1.36368715e+00  1.36742310e+00  1.37608480e+00
  1.37754261e+00  1.38116688e+00  1.38986742e+00  1.39075934e+00
  1.39978138e+00  1.41758353e+00  1.42655308e+00  1.44084913e+00
  1.44868463e+00  1.45816699e+00  1.47380635e+00  1.48358261e+00
  1.51158527e+00  1.54614056e+00  1.54907135e+00  1.59475281e+00
  1.60483033e+00  1.63511009e+00  1.65925034e+00  1.68474935e+00
  1.73730569e+00  1.80676085e+00  1.80817144e+00  1.86843255e+00
  1.88067837e+00  1.90377009e+00  1.95121753e+00  1.99840120e+00
  2.05046412e+00  2.06293762e+00  2.14107823e+00  2.21398744e+00
  2.26841706e+00  2.31754266e+00  2.37351129e+00  2.40681824e+00
  2.45673908e+00  2.46311123e+00  2.49520207e+00  2.54982801e+00
  2.61477283e+00  2.67935671e+00  2.69191647e+00  2.70590810e+00
  2.74977800e+00  2.79259372e+00  2.84490726e+00  2.84876376e+00
  2.84963501e+00  2.87522334e+00  2.96936510e+00  2.97015170e+00
  3.00948553e+00  3.06246519e+00  3.10398906e+00  3.12771999e+00
  3.14528095e+00  3.18202165e+00  3.19783948e+00  3.21985799e+00
  3.22330347e+00  3.24348875e+00  3.29024818e+00  3.30197706e+00
  3.30536194e+00  3.32393637e+00  3.34516286e+00  3.34838748e+00
  3.35123746e+00  3.39351914e+00  3.39920381e+00  3.40274156e+00
  3.40800248e+00  3.41484304e+00  3.42113901e+00  3.43911154e+00
  3.47689181e+00  3.48131368e+00  3.52761510e+00  3.52954981e+00
  3.54325157e+00  3.61474942e+00  3.66244795e+00  3.66914264e+00
  3.67601786e+00  3.68700432e+00  3.68799003e+00  3.69104786e+00
  3.73925136e+00  3.74380755e+00  3.76610097e+00  3.79748194e+00
  3.85181316e+00  3.87098341e+00  3.90392616e+00  3.92173794e+00
  3.95362484e+00  3.97789870e+00  4.03341440e+00  4.04102605e+00
  4.06363613e+00  4.06789221e+00  4.09837469e+00  4.15034774e+00
  4.23110765e+00  4.24475775e+00  4.27860961e+00  4.29409331e+00
  4.30047030e+00  4.38280880e+00  4.39046757e+00  4.42957590e+00
  4.43460170e+00  4.50197763e+00  4.52886159e+00  4.53378007e+00
  4.59547234e+00  4.63919848e+00  4.65712716e+00  4.67051150e+00
  4.70754035e+00  4.78561245e+00  4.81805734e+00  4.93845680e+00
  4.99730014e+00  5.03203991e+00  5.05599632e+00  5.11763373e+00
  5.13107132e+00  5.29277508e+00  5.31172916e+00  5.37330381e+00
  5.42644024e+00  5.42857282e+00  5.43140948e+00  5.47784819e+00
  5.51189357e+00  5.51373591e+00  5.57770664e+00  5.65258286e+00
  5.71698816e+00  5.73963401e+00  5.82281395e+00  5.83598576e+00
  5.94702690e+00  5.95306348e+00  6.02624445e+00  6.05363746e+00
  6.09589983e+00  6.11374329e+00  6.14813278e+00  6.16430162e+00
  6.25176494e+00  6.34582662e+00  6.41754716e+00  6.41866047e+00
  6.42010349e+00  6.53715632e+00  6.60020171e+00  6.63847574e+00
  6.68705378e+00  6.76420971e+00  6.82723712e+00  6.87083360e+00
  6.87274347e+00  6.95276213e+00  7.01321655e+00  7.11090382e+00
  7.14822381e+00  7.22188372e+00  7.25835604e+00  7.26247841e+00
  7.29876203e+00  7.36580545e+00  7.42058943e+00  7.44865197e+00
  7.62640312e+00  7.68972431e+00  7.81561743e+00  7.89815257e+00
  8.01791725e+00  8.37616935e+00  1.11344794e+01  1.30542374e+01
  1.32936110e+01  1.40402016e+01  1.58844156e+01  1.74517734e+01]
E1 = -1686.689132364394  E_coul = 697.8146186282361
cycle= 1 E= -444.594803007455  delta_E= 3.74  |g|= 0.961  |ddm|= 3.28
    CPU time for cycle= 1    167.77 sec, wall time      5.29 sec
diis-norm(errvec)=3.35841
diis-c [-11.27894301   1.        ]
  HOMO = -0.0650529183189752  LUMO = -0.00189524848616486
  mo_energy =
[-2.06104571e+01 -2.06102747e+01 -2.02547168e+01 -1.16830287e+01
 -1.14559664e+01 -1.14549797e+01 -2.47426657e+00 -2.47230649e+00
 -2.47093288e+00 -2.47058195e+00 -2.40129206e+00 -2.40048740e+00
 -2.39861394e+00 -2.39754401e+00 -2.36586809e+00 -2.35570067e+00
 -2.35451562e+00 -2.35431810e+00 -2.35412566e+00 -2.24538395e+00
 -1.69830412e+00 -1.51471193e+00 -1.43323514e+00 -1.20823813e+00
 -1.04294807e+00 -9.39379569e-01 -8.83179823e-01 -8.22904697e-01
 -7.91832359e-01 -7.24421859e-01 -7.11022465e-01 -6.41443995e-01
 -6.24332225e-01 -6.00794989e-01 -5.41491390e-01 -4.67699434e-01
 -4.25300174e-01 -2.27415531e-01 -1.85410220e-01 -1.83103130e-01
 -1.37862879e-01 -1.27037572e-01 -1.00929247e-01 -6.50529183e-02
 -1.89524849e-03 -5.82353455e-04  1.20556828e-02  1.40015940e-02
  1.47644972e-02  2.21787444e-02  2.78972740e-02  3.12029252e-02
  3.25963337e-02  4.09456925e-02  4.28835141e-02  4.72419405e-02
  4.83291173e-02  4.96302782e-02  5.57337536e-02  5.94397604e-02
  5.97938379e-02  6.20618199e-02  6.41140639e-02  6.76664768e-02
  7.12241699e-02  7.26467739e-02  7.33696285e-02  7.56063308e-02
  7.56965258e-02  7.60452500e-02  8.32141379e-02  8.37238289e-02
  8.57143601e-02  8.63917221e-02  8.85600559e-02  9.12286252e-02
  9.17320109e-02  9.45601404e-02  9.66583671e-02  1.00109685e-01
  1.01924432e-01  1.04200648e-01  1.04481615e-01  1.05724805e-01
  1.08656766e-01  1.09814417e-01  1.18211167e-01  1.24123087e-01
  1.30218707e-01  1.30456806e-01  1.31198920e-01  1.31577966e-01
  1.32189082e-01  1.34660251e-01  1.35001150e-01  1.37956247e-01
  1.47075186e-01  1.49202549e-01  1.50284125e-01  1.51539211e-01
  1.53519487e-01  1.56340873e-01  1.62604675e-01  1.65955808e-01
  1.66726575e-01  1.68121109e-01  1.69801368e-01  1.77090911e-01
  1.77897816e-01  1.78812518e-01  1.83763119e-01  1.84813885e-01
  1.85501971e-01  1.86343919e-01  1.89532055e-01  1.97441025e-01
  1.99598805e-01  1.99910551e-01  2.01531241e-01  2.03329373e-01
  2.05670340e-01  2.11295012e-01  2.12355615e-01  2.16367812e-01
  2.17679169e-01  2.23249954e-01  2.29530838e-01  2.31696219e-01
  2.31873544e-01  2.33112680e-01  2.40119058e-01  2.41029277e-01
  2.41262302e-01  2.41464391e-01  2.44600729e-01  2.55234735e-01
  2.57364840e-01  2.59435007e-01  2.59889356e-01  2.61989052e-01
  2.69600084e-01  2.74665273e-01  2.75642489e-01  2.79358050e-01
  2.87482740e-01  2.87856468e-01  2.91812114e-01  2.94723195e-01
  2.95102134e-01  3.01431400e-01  3.01757786e-01  3.05728142e-01
  3.09053559e-01  3.12245056e-01  3.18114337e-01  3.19337849e-01
  3.22312315e-01  3.23917042e-01  3.27660778e-01  3.28871885e-01
  3.30643645e-01  3.34613280e-01  3.46155392e-01  3.46487360e-01
  3.50170755e-01  3.54970437e-01  3.55932562e-01  3.58827216e-01
  3.65131953e-01  3.65694113e-01  3.72630086e-01  3.73926738e-01
  3.75539358e-01  3.82428299e-01  3.84895838e-01  4.00116388e-01
  4.01038768e-01  4.07105765e-01  4.07893205e-01  4.10710040e-01
  4.11790248e-01  4.12949388e-01  4.18246374e-01  4.20575018e-01
  4.22234765e-01  4.22815350e-01  4.24600454e-01  4.25880250e-01
  4.27688247e-01  4.28872243e-01  4.32278891e-01  4.35898796e-01
  4.39098143e-01  4.43040678e-01  4.52205159e-01  4.55197397e-01
  4.59430013e-01  4.59979914e-01  4.61517581e-01  4.63979363e-01
  4.66895651e-01  4.67567038e-01  4.69137779e-01  4.72555744e-01
  4.72727346e-01  4.84497898e-01  4.86007423e-01  4.90489605e-01
  4.91626402e-01  4.97619608e-01  4.98684328e-01  4.99001944e-01
  4.99752291e-01  5.07686348e-01  5.11191708e-01  5.13302339e-01
  5.14118044e-01  5.15989251e-01  5.17273354e-01  5.22992375e-01
  5.26522955e-01  5.26891110e-01  5.28454802e-01  5.33687257e-01
  5.37484761e-01  5.43210364e-01  5.43905972e-01  5.45296724e-01
  5.50828762e-01  5.53702741e-01  5.55539345e-01  5.58299290e-01
  5.63596167e-01  5.66541860e-01  5.66889078e-01  5.71407881e-01
  5.74373561e-01  5.79632755e-01  5.81714207e-01  5.83351763e-01
  5.87218089e-01  5.93245651e-01  5.96300909e-01  5.99560062e-01
  5.99967160e-01  6.01387042e-01  6.03198809e-01  6.05339534e-01
  6.06104137e-01  6.07608509e-01  6.10344157e-01  6.17287393e-01
  6.19782615e-01  6.20667143e-01  6.23693159e-01  6.29762835e-01
  6.34589202e-01  6.42867891e-01  6.45064854e-01  6.48267412e-01
  6.50188108e-01  6.62717109e-01  6.66058221e-01  6.70397220e-01
  6.72348563e-01  6.80379824e-01  6.81803007e-01  6.85712196e-01
  6.91738253e-01  7.04303264e-01  7.09559622e-01  7.18802834e-01
  7.21639623e-01  7.26483670e-01  7.36065717e-01  7.38640632e-01
  7.42161363e-01  7.43538329e-01  7.50650601e-01  7.51917504e-01
  7.52075844e-01  7.53171439e-01  7.54592835e-01  7.54850336e-01
  7.55408877e-01  7.59532859e-01  7.68895529e-01  7.70671428e-01
  7.71252290e-01  7.72057605e-01  7.74001826e-01  7.80334610e-01
  7.81622264e-01  7.83304745e-01  7.84365164e-01  7.89371836e-01
  7.91732081e-01  7.94908199e-01  7.98944689e-01  8.03224511e-01
  8.05970559e-01  8.07755923e-01  8.12015372e-01  8.15053764e-01
  8.18723175e-01  8.20504028e-01  8.23287311e-01  8.26509513e-01
  8.28551338e-01  8.30832587e-01  8.34107931e-01  8.36971469e-01
  8.44942002e-01  8.49298983e-01  8.50623911e-01  8.57526232e-01
  8.61732009e-01  8.64545989e-01  8.67102874e-01  8.69342155e-01
  8.73744507e-01  8.74997958e-01  8.79486073e-01  8.80414859e-01
  8.82859932e-01  8.85709778e-01  8.93438288e-01  8.94652188e-01
  8.95355000e-01  8.96237582e-01  8.98605154e-01  9.01976663e-01
  9.03896709e-01  9.12518755e-01  9.15243106e-01  9.19008470e-01
  9.20238033e-01  9.20698272e-01  9.22256515e-01  9.23727207e-01
  9.31616021e-01  9.36169650e-01  9.38203348e-01  9.44110850e-01
  9.45851764e-01  9.47454504e-01  9.51990874e-01  9.52297219e-01
  9.52639677e-01  9.56331478e-01  9.60849932e-01  9.64798548e-01
  9.67015737e-01  9.70449003e-01  9.77308095e-01  9.83944473e-01
  9.85057801e-01  9.85499347e-01  9.91066255e-01  9.91558693e-01
  9.92969742e-01  9.96823819e-01  9.99014161e-01  1.00837916e+00
  1.01052037e+00  1.01375897e+00  1.02335798e+00  1.02679128e+00
  1.02818611e+00  1.03421503e+00  1.03604385e+00  1.03716372e+00
  1.03803364e+00  1.04366390e+00  1.04896192e+00  1.05212641e+00
  1.05541323e+00  1.06265736e+00  1.06298778e+00  1.06491269e+00
  1.06850849e+00  1.07163877e+00  1.07759237e+00  1.07866747e+00
  1.08077850e+00  1.08484064e+00  1.09604283e+00  1.09766473e+00
  1.10149609e+00  1.10474703e+00  1.10623141e+00  1.10764175e+00
  1.11151716e+00  1.11547487e+00  1.11646802e+00  1.11817532e+00
  1.12219996e+00  1.13066871e+00  1.13393322e+00  1.13545151e+00
  1.14126914e+00  1.14707715e+00  1.15440423e+00  1.15701464e+00
  1.15991325e+00  1.16036551e+00  1.16316149e+00  1.17138972e+00
  1.18504807e+00  1.18600868e+00  1.19299098e+00  1.19651298e+00
  1.20338398e+00  1.20908674e+00  1.21893985e+00  1.22112037e+00
  1.22641848e+00  1.22689026e+00  1.22944114e+00  1.23229543e+00
  1.23787705e+00  1.24195132e+00  1.24272235e+00  1.24607876e+00
  1.25041316e+00  1.25204399e+00  1.25703513e+00  1.26457907e+00
  1.26750300e+00  1.26827549e+00  1.27604006e+00  1.27718673e+00
  1.28886897e+00  1.29286774e+00  1.29932059e+00  1.30053397e+00
  1.30485186e+00  1.31341719e+00  1.32287216e+00  1.32588382e+00
  1.32712554e+00  1.32869669e+00  1.34077215e+00  1.34705362e+00
  1.35115767e+00  1.35503011e+00  1.36675341e+00  1.36792242e+00
  1.37611020e+00  1.37657890e+00  1.38152883e+00  1.38794950e+00
  1.39609548e+00  1.39900585e+00  1.40282169e+00  1.40570114e+00
  1.40758914e+00  1.40898204e+00  1.41277114e+00  1.41351079e+00
  1.42904020e+00  1.43648333e+00  1.43782149e+00  1.44466608e+00
  1.44858190e+00  1.44987145e+00  1.46821348e+00  1.47282803e+00
  1.48475941e+00  1.48944622e+00  1.49442567e+00  1.49712459e+00
  1.49758947e+00  1.50985306e+00  1.51295601e+00  1.51485140e+00
  1.52018895e+00  1.53532081e+00  1.54039519e+00  1.57485329e+00
  1.58306882e+00  1.59233575e+00  1.60368352e+00  1.60538330e+00
  1.65331600e+00  1.65786998e+00  1.67725053e+00  1.68775319e+00
  1.76444051e+00  1.76474409e+00  1.84658153e+00  1.88870435e+00
  1.89405708e+00  1.97283405e+00  1.99168865e+00  2.05488206e+00
  2.06359927e+00  2.14939653e+00  2.20718968e+00  2.24472885e+00
  2.26223660e+00  2.32281885e+00  2.38439281e+00  2.41009794e+00
  2.44379656e+00  2.46965206e+00  2.50155540e+00  2.52984456e+00
  2.57426923e+00  2.61245496e+00  2.66517274e+00  2.67477387e+00
  2.74030864e+00  2.77913439e+00  2.78240135e+00  2.81313404e+00
  2.84011723e+00  2.85283816e+00  2.94781325e+00  2.96922723e+00
  3.00058843e+00  3.01276548e+00  3.05750203e+00  3.06505010e+00
  3.12822549e+00  3.12899801e+00  3.15120436e+00  3.16271774e+00
  3.23565463e+00  3.24098498e+00  3.25734119e+00  3.25794546e+00
  3.25971612e+00  3.27162660e+00  3.28812998e+00  3.31825268e+00
  3.32397729e+00  3.37794526e+00  3.38910222e+00  3.40738581e+00
  3.41382996e+00  3.43056898e+00  3.46646248e+00  3.47181284e+00
  3.47920793e+00  3.49123299e+00  3.50277962e+00  3.51892859e+00
  3.52521127e+00  3.56842034e+00  3.62818451e+00  3.65139752e+00
  3.68274514e+00  3.72003592e+00  3.74716046e+00  3.76704374e+00
  3.79365445e+00  3.79483104e+00  3.81023413e+00  3.81258413e+00
  3.81919919e+00  3.85367607e+00  3.87444451e+00  3.88440308e+00
  3.91465912e+00  3.92702608e+00  3.97666719e+00  4.00837046e+00
  4.02015661e+00  4.04334234e+00  4.07154076e+00  4.11904603e+00
  4.21238029e+00  4.24513633e+00  4.25957464e+00  4.26314427e+00
  4.35196109e+00  4.36121437e+00  4.37703657e+00  4.40444313e+00
  4.45513976e+00  4.46080505e+00  4.48015089e+00  4.49722104e+00
  4.60810387e+00  4.63563718e+00  4.64719285e+00  4.77393119e+00
  4.80755415e+00  4.83982108e+00  4.91175068e+00  4.93810336e+00
  4.96858757e+00  5.01310674e+00  5.04464937e+00  5.11156889e+00
  5.18938445e+00  5.29016686e+00  5.29498573e+00  5.34826410e+00
  5.39580053e+00  5.47139145e+00  5.47890312e+00  5.48242030e+00
  5.60590260e+00  5.67230980e+00  5.67639413e+00  5.73147805e+00
  5.73461509e+00  5.76619523e+00  5.81176652e+00  5.90454187e+00
  5.95280872e+00  5.98601259e+00  6.04374255e+00  6.06477055e+00
  6.10097447e+00  6.15016387e+00  6.18624823e+00  6.23385231e+00
  6.24506541e+00  6.36680716e+00  6.41289567e+00  6.43764259e+00
  6.46804764e+00  6.58680975e+00  6.62525677e+00  6.74972428e+00
  6.82210288e+00  6.85664464e+00  6.91649703e+00  7.10132120e+00
  7.12177441e+00  7.14979252e+00  7.20134766e+00  7.21839874e+00
  7.26124910e+00  7.29871259e+00  7.35179034e+00  7.37199720e+00
  7.44457313e+00  7.54224896e+00  7.60243858e+00  7.64824691e+00
  7.77018351e+00  7.78724463e+00  8.04971264e+00  8.07514926e+00
  8.11937633e+00  8.49655201e+00  1.11821890e+01  1.30976386e+01
  1.33531600e+01  1.40415045e+01  1.57906927e+01  1.75067780e+01]
E1 = -1683.7451192534224  E_coul = 694.7338385394953
cycle= 2 E= -444.731569985224  delta_E= -0.137  |g|= 0.615  |ddm|= 1.49
    CPU time for cycle= 2    170.91 sec, wall time      5.38 sec
diis-norm(errvec)=2.29245
diis-c [-1.10236813  0.38980501  0.61019499]
  HOMO = -0.115105989107632  LUMO = -0.021704711107858
  mo_energy =
[-2.06422397e+01 -2.06421467e+01 -2.06286410e+01 -1.14628374e+01
 -1.13200098e+01 -1.13189787e+01 -2.47018314e+00 -2.47008848e+00
 -2.47006286e+00 -2.46993513e+00 -2.44480835e+00 -2.44464470e+00
 -2.44456157e+00 -2.44447000e+00 -2.44351855e+00 -2.44217170e+00
 -2.44196285e+00 -2.44189447e+00 -2.44186186e+00 -2.40853396e+00
 -1.64394994e+00 -1.50242616e+00 -1.47289866e+00 -1.14133523e+00
 -9.93354116e-01 -9.02598656e-01 -8.38065637e-01 -8.15399779e-01
 -7.58012872e-01 -7.30170544e-01 -6.94832546e-01 -6.83088449e-01
 -6.10114663e-01 -5.88394857e-01 -5.52132614e-01 -5.36543348e-01
 -5.08672353e-01 -2.92450790e-01 -2.24372425e-01 -2.23365887e-01
 -1.79454774e-01 -1.66494010e-01 -1.33103401e-01 -1.15105989e-01
 -2.17047111e-02 -2.12525569e-02  2.73389467e-04  1.51163610e-03
  8.84885363e-03  9.79770960e-03  1.17803210e-02  1.96629061e-02
  2.32783515e-02  3.23862570e-02  3.41560414e-02  3.51854806e-02
  3.69956193e-02  4.21241418e-02  4.91680436e-02  4.97349079e-02
  5.15153218e-02  5.49162178e-02  5.70007546e-02  6.10704893e-02
  6.29605977e-02  6.34349351e-02  6.78132439e-02  6.93190457e-02
  6.98151693e-02  7.15155107e-02  7.69765050e-02  7.72269080e-02
  7.73807584e-02  8.04550998e-02  8.18159176e-02  8.18584363e-02
  8.20947571e-02  8.44514377e-02  8.53859051e-02  8.56008289e-02
  8.57676283e-02  9.32034734e-02  9.58490981e-02  9.90344333e-02
  1.03923152e-01  1.04377789e-01  1.05321200e-01  1.10208647e-01
  1.13187283e-01  1.13351426e-01  1.13698006e-01  1.19161085e-01
  1.19429081e-01  1.25063633e-01  1.33257089e-01  1.34327184e-01
  1.35439186e-01  1.37178937e-01  1.38936450e-01  1.39345986e-01
  1.41163447e-01  1.43114475e-01  1.47583097e-01  1.52482388e-01
  1.56283555e-01  1.60701186e-01  1.63669636e-01  1.66416688e-01
  1.69430300e-01  1.69536424e-01  1.69937534e-01  1.70066300e-01
  1.72676711e-01  1.76775935e-01  1.77906282e-01  1.79239066e-01
  1.89917800e-01  1.90629210e-01  1.95895498e-01  1.96103023e-01
  1.98725005e-01  2.00724478e-01  2.04914585e-01  2.06105243e-01
  2.08644122e-01  2.12238950e-01  2.15970500e-01  2.17683538e-01
  2.18677075e-01  2.19671466e-01  2.19902227e-01  2.20883922e-01
  2.21161666e-01  2.23870837e-01  2.32083384e-01  2.38620333e-01
  2.39538698e-01  2.40600978e-01  2.44146510e-01  2.48538974e-01
  2.49175911e-01  2.54987216e-01  2.56758082e-01  2.57900047e-01
  2.63123296e-01  2.64027092e-01  2.65122722e-01  2.72158305e-01
  2.73117634e-01  2.74462000e-01  2.81375767e-01  2.93704702e-01
  2.94646273e-01  2.95421537e-01  3.01073860e-01  3.03189348e-01
  3.09512485e-01  3.10390457e-01  3.10816421e-01  3.12975310e-01
  3.19595252e-01  3.21652182e-01  3.24239760e-01  3.24772517e-01
  3.26266337e-01  3.29233896e-01  3.31348693e-01  3.33669896e-01
  3.34653604e-01  3.41910153e-01  3.45447332e-01  3.52082180e-01
  3.55022394e-01  3.61387554e-01  3.63318651e-01  3.78267897e-01
  3.82396960e-01  3.83456503e-01  3.85865061e-01  3.87210024e-01
  3.87967428e-01  3.88223434e-01  3.99432015e-01  4.02558966e-01
  4.05231648e-01  4.05586244e-01  4.06681506e-01  4.08304393e-01
  4.11194634e-01  4.11481053e-01  4.12729347e-01  4.13905198e-01
  4.13988487e-01  4.24118048e-01  4.25645101e-01  4.29903165e-01
  4.33247296e-01  4.35223638e-01  4.37423924e-01  4.39818817e-01
  4.43995120e-01  4.44800352e-01  4.46313414e-01  4.47092693e-01
  4.48416962e-01  4.49268285e-01  4.56753540e-01  4.64305802e-01
  4.70621392e-01  4.71265073e-01  4.75575860e-01  4.79289019e-01
  4.79497777e-01  4.80007401e-01  4.83270080e-01  4.83786174e-01
  4.90633941e-01  4.90940786e-01  4.93459526e-01  4.99568168e-01
  5.02646103e-01  5.06018420e-01  5.08403978e-01  5.09654532e-01
  5.10866503e-01  5.14318297e-01  5.15647779e-01  5.18250302e-01
  5.25054538e-01  5.29138158e-01  5.29617461e-01  5.34471407e-01
  5.36801846e-01  5.40869635e-01  5.41618804e-01  5.47282474e-01
  5.48778299e-01  5.54155616e-01  5.57422056e-01  5.59787140e-01
  5.62373618e-01  5.65694564e-01  5.65925273e-01  5.67730926e-01
  5.68540325e-01  5.70566147e-01  5.71335651e-01  5.72880930e-01
  5.82259504e-01  5.85165482e-01  5.95187886e-01  5.99265229e-01
  6.01306396e-01  6.02578865e-01  6.07354112e-01  6.14850543e-01
  6.16720791e-01  6.34259136e-01  6.35547784e-01  6.36154379e-01
  6.38728138e-01  6.40996953e-01  6.44743118e-01  6.45769269e-01
  6.47258422e-01  6.52901262e-01  6.66494210e-01  6.68896424e-01
  6.74566013e-01  6.75348954e-01  6.81177102e-01  6.90427975e-01
  6.92710720e-01  6.96773144e-01  7.01325355e-01  7.10070665e-01
  7.15111010e-01  7.16698116e-01  7.17678487e-01  7.20488529e-01
  7.21476379e-01  7.23322164e-01  7.24915527e-01  7.29635526e-01
  7.30578628e-01  7.33592581e-01  7.35853298e-01  7.36446741e-01
  7.42270466e-01  7.44090244e-01  7.47116378e-01  7.51003423e-01
  7.53228834e-01  7.59397428e-01  7.61611623e-01  7.61911579e-01
  7.64065073e-01  7.66601553e-01  7.68862943e-01  7.79186881e-01
  7.80018572e-01  7.80867943e-01  7.83331486e-01  7.84972164e-01
  7.89373205e-01  7.90645267e-01  7.91177032e-01  7.91768201e-01
  7.96372585e-01  8.02271523e-01  8.05198408e-01  8.12540260e-01
  8.14990814e-01  8.15313359e-01  8.19672014e-01  8.26371413e-01
  8.30180674e-01  8.32582930e-01  8.38514269e-01  8.43079474e-01
  8.47408423e-01  8.49796301e-01  8.52890845e-01  8.55620214e-01
  8.58398110e-01  8.62690343e-01  8.63151014e-01  8.66784361e-01
  8.66999085e-01  8.67939708e-01  8.70028930e-01  8.76798504e-01
  8.82277067e-01  8.84343460e-01  8.87866048e-01  8.88919763e-01
  8.91741765e-01  8.92213592e-01  8.95363752e-01  8.96535506e-01
  8.99271195e-01  9.02906091e-01  9.05355087e-01  9.08151206e-01
  9.10157621e-01  9.10884012e-01  9.13197912e-01  9.23164947e-01
  9.29675122e-01  9.31521937e-01  9.32648893e-01  9.36003835e-01
  9.37779172e-01  9.40105545e-01  9.41082664e-01  9.43353777e-01
  9.46974282e-01  9.49053989e-01  9.50268942e-01  9.51175149e-01
  9.59406043e-01  9.60031536e-01  9.66010627e-01  9.69426416e-01
  9.75147277e-01  9.85901288e-01  9.88591731e-01  9.92887319e-01
  9.96008916e-01  9.98236430e-01  1.00446574e+00  1.00486004e+00
  1.00972511e+00  1.01189369e+00  1.01362268e+00  1.01567187e+00
  1.01618125e+00  1.01952561e+00  1.02130751e+00  1.02912940e+00
  1.03266033e+00  1.03639411e+00  1.03756267e+00  1.04228478e+00
  1.04930781e+00  1.05087437e+00  1.05292269e+00  1.05467722e+00
  1.05974603e+00  1.06116859e+00  1.06613657e+00  1.06968451e+00
  1.07150765e+00  1.07185999e+00  1.07387366e+00  1.07983405e+00
  1.08068889e+00  1.08102605e+00  1.09825884e+00  1.10197033e+00
  1.10483131e+00  1.11057913e+00  1.11268434e+00  1.11352747e+00
  1.11918005e+00  1.12827799e+00  1.12960229e+00  1.14542889e+00
  1.15226995e+00  1.15759730e+00  1.15863354e+00  1.17169455e+00
  1.17225459e+00  1.17419924e+00  1.17665357e+00  1.17906482e+00
  1.18213389e+00  1.18525566e+00  1.18559885e+00  1.19334918e+00
  1.19563806e+00  1.19842024e+00  1.20826667e+00  1.21025305e+00
  1.21165710e+00  1.21702112e+00  1.22215641e+00  1.22828112e+00
  1.23018250e+00  1.23325457e+00  1.23976348e+00  1.24320583e+00
  1.24732627e+00  1.25483060e+00  1.25658747e+00  1.25944927e+00
  1.26089333e+00  1.26716143e+00  1.27540810e+00  1.27678629e+00
  1.28399237e+00  1.29807889e+00  1.29952071e+00  1.30278147e+00
  1.30357065e+00  1.30780395e+00  1.31003649e+00  1.31221101e+00
  1.31403054e+00  1.32610397e+00  1.32698055e+00  1.33206241e+00
  1.33405966e+00  1.33653272e+00  1.34803278e+00  1.35682754e+00
  1.36375554e+00  1.36703154e+00  1.36840217e+00  1.37032830e+00
  1.37735397e+00  1.37887754e+00  1.38404795e+00  1.40627555e+00
  1.41180560e+00  1.41747012e+00  1.41909232e+00  1.42124286e+00
  1.42328099e+00  1.42882626e+00  1.43271261e+00  1.43773804e+00
  1.44255368e+00  1.44380263e+00  1.44607448e+00  1.45447410e+00
  1.45998822e+00  1.50270928e+00  1.51537253e+00  1.52841545e+00
  1.53765764e+00  1.55155860e+00  1.55882899e+00  1.57579717e+00
  1.62066317e+00  1.65057334e+00  1.67294585e+00  1.68177738e+00
  1.74861417e+00  1.80324228e+00  1.86526387e+00  1.89104437e+00
  1.89366490e+00  1.94005834e+00  1.98153161e+00  2.00600340e+00
  2.07651815e+00  2.11309421e+00  2.16317414e+00  2.24671666e+00
  2.28888954e+00  2.34354517e+00  2.40238457e+00  2.43411520e+00
  2.46878048e+00  2.48008455e+00  2.51297780e+00  2.54826620e+00
  2.61845115e+00  2.66956060e+00  2.68721340e+00  2.72024147e+00
  2.78155710e+00  2.79040826e+00  2.83504015e+00  2.86747654e+00
  2.87133965e+00  2.88152056e+00  2.97824160e+00  2.99545193e+00
  3.01066377e+00  3.06163499e+00  3.11036370e+00  3.12343458e+00
  3.14600676e+00  3.18187587e+00  3.20147038e+00  3.22709175e+00
  3.24573257e+00  3.24850790e+00  3.29441190e+00  3.30013037e+00
  3.31075500e+00  3.32829436e+00  3.33318325e+00  3.34713554e+00
  3.37432964e+00  3.38526695e+00  3.41578138e+00  3.42852035e+00
  3.43350860e+00  3.44048492e+00  3.45973790e+00  3.46199773e+00
  3.47403357e+00  3.47565584e+00  3.53172986e+00  3.53423039e+00
  3.56727555e+00  3.61361156e+00  3.67296658e+00  3.69326484e+00
  3.70284373e+00  3.72055117e+00  3.72127383e+00  3.74104445e+00
  3.76459066e+00  3.77352953e+00  3.79454788e+00  3.80618545e+00
  3.85604631e+00  3.85727058e+00  3.89372297e+00  3.92163032e+00
  3.95797976e+00  3.96751035e+00  4.02194719e+00  4.04302891e+00
  4.05746500e+00  4.07789362e+00  4.09669362e+00  4.15509906e+00
  4.24734263e+00  4.27344468e+00  4.29071312e+00  4.29483030e+00
  4.33666669e+00  4.38780208e+00  4.39433534e+00  4.42931422e+00
  4.43726805e+00  4.50375512e+00  4.51595539e+00  4.52229487e+00
  4.65406677e+00  4.67458237e+00  4.68072335e+00  4.70816392e+00
  4.77006878e+00  4.82233232e+00  4.83716172e+00  4.94769732e+00
  5.01157464e+00  5.05450038e+00  5.08394952e+00  5.14346356e+00
  5.17435810e+00  5.32675201e+00  5.33535186e+00  5.39525412e+00
  5.43893363e+00  5.48582685e+00  5.49371542e+00  5.52839325e+00
  5.57420132e+00  5.60143806e+00  5.60875704e+00  5.68469242e+00
  5.75478637e+00  5.75735719e+00  5.85006619e+00  5.87951846e+00
  5.98805711e+00  5.99660794e+00  6.09044966e+00  6.11254836e+00
  6.11918672e+00  6.14634255e+00  6.20613047e+00  6.21226349e+00
  6.28602495e+00  6.39592941e+00  6.45111619e+00  6.46777276e+00
  6.47851621e+00  6.59610787e+00  6.65145072e+00  6.72255222e+00
  6.79902583e+00  6.85159143e+00  6.90518198e+00  6.96979446e+00
  6.99302109e+00  7.04210872e+00  7.10517494e+00  7.20718884e+00
  7.23587037e+00  7.30851462e+00  7.35403585e+00  7.35687674e+00
  7.42924248e+00  7.46141262e+00  7.52561976e+00  7.53657463e+00
  7.74857779e+00  7.77462164e+00  7.92981598e+00  8.00255184e+00
  8.10144225e+00  8.45587232e+00  1.11835765e+01  1.31069036e+01
  1.33680471e+01  1.40725769e+01  1.58930023e+01  1.74832940e+01]
E1 = -1686.095583177647  E_coul = 696.9983169908076
cycle= 3 E= -444.817555458136  delta_E= -0.086  |g|= 0.0891  |ddm|= 0.603
    CPU time for cycle= 3    170.37 sec, wall time      5.35 sec
diis-norm(errvec)=0.41808
diis-c [-0.12276734 -0.07512067 -0.00304817  1.07816884]
  HOMO = -0.103995885718154  LUMO = -0.0119126785775605
  mo_energy =
[-2.06618357e+01 -2.06617427e+01 -2.05574980e+01 -1.14335402e+01
 -1.13011059e+01 -1.13000612e+01 -2.46594213e+00 -2.46542529e+00
 -2.46537996e+00 -2.46531270e+00 -2.43435049e+00 -2.43424162e+00
 -2.43387588e+00 -2.43375756e+00 -2.42038634e+00 -2.41968865e+00
 -2.41961841e+00 -2.41947383e+00 -2.41530125e+00 -2.38519516e+00
 -1.63670191e+00 -1.47564582e+00 -1.47349291e+00 -1.12885835e+00
 -9.85049724e-01 -8.99369747e-01 -8.31817578e-01 -8.01753437e-01
 -7.48260350e-01 -7.14731998e-01 -6.80806738e-01 -6.80754078e-01
 -6.16104469e-01 -5.84559365e-01 -5.32642209e-01 -5.21536045e-01
 -5.07065527e-01 -2.75722199e-01 -2.15275516e-01 -2.14243275e-01
 -1.70104062e-01 -1.61443381e-01 -1.24148651e-01 -1.03995886e-01
 -1.19126786e-02 -1.15722083e-02  5.38735433e-03  6.44539822e-03
  1.13484644e-02  1.55850568e-02  1.79050229e-02  2.05995134e-02
  2.66855186e-02  3.59269193e-02  3.88983673e-02  3.91117787e-02
  3.97858602e-02  4.40326975e-02  5.29610638e-02  5.32287034e-02
  5.45892620e-02  5.72754499e-02  5.90183923e-02  6.39338898e-02
  6.50017596e-02  6.54347265e-02  6.98430226e-02  7.13141467e-02
  7.19629928e-02  7.34846176e-02  7.91607135e-02  7.94805632e-02
  7.98663039e-02  8.31198955e-02  8.32438353e-02  8.43843990e-02
  8.61461466e-02  8.71735059e-02  8.74163705e-02  8.94843560e-02
  8.98931413e-02  9.56645707e-02  9.91626897e-02  1.02531962e-01
  1.05490854e-01  1.06506363e-01  1.10527640e-01  1.14662804e-01
  1.15538906e-01  1.17149732e-01  1.18059692e-01  1.22790115e-01
  1.23025167e-01  1.26933769e-01  1.35768880e-01  1.38791802e-01
  1.40259040e-01  1.40513066e-01  1.42356606e-01  1.45367761e-01
  1.45528649e-01  1.47164616e-01  1.53659593e-01  1.56864125e-01
  1.60432789e-01  1.64130825e-01  1.66882481e-01  1.71611029e-01
  1.72594924e-01  1.73647676e-01  1.75560716e-01  1.76615587e-01
  1.76802051e-01  1.81996991e-01  1.83616667e-01  1.84210220e-01
  1.93202723e-01  1.94446277e-01  1.98601166e-01  2.02168054e-01
  2.02619671e-01  2.05471047e-01  2.11081609e-01  2.11582113e-01
  2.16150646e-01  2.18926913e-01  2.20497618e-01  2.21254683e-01
  2.24287506e-01  2.24625889e-01  2.25014773e-01  2.26730079e-01
  2.28347301e-01  2.28489090e-01  2.37705302e-01  2.44734916e-01
  2.45483905e-01  2.48058157e-01  2.48784894e-01  2.55106080e-01
  2.55728058e-01  2.60491905e-01  2.62455507e-01  2.64746201e-01
  2.70558494e-01  2.71277596e-01  2.72759298e-01  2.79537532e-01
  2.80869947e-01  2.83136395e-01  2.88860422e-01  2.99162023e-01
  2.99841452e-01  3.01229081e-01  3.06476753e-01  3.08694350e-01
  3.13509339e-01  3.14964456e-01  3.16849040e-01  3.22160765e-01
  3.25655315e-01  3.28816187e-01  3.29653499e-01  3.31720446e-01
  3.32776638e-01  3.36638021e-01  3.37718097e-01  3.40380689e-01
  3.43807919e-01  3.49096320e-01  3.51698504e-01  3.57930651e-01
  3.62736293e-01  3.67067276e-01  3.70434636e-01  3.86926775e-01
  3.89548210e-01  3.90810302e-01  3.91707387e-01  3.93067912e-01
  3.95826701e-01  3.96694053e-01  4.03936132e-01  4.10968871e-01
  4.11650886e-01  4.12179881e-01  4.13115364e-01  4.15416799e-01
  4.17001698e-01  4.17143113e-01  4.18390509e-01  4.19215218e-01
  4.24250661e-01  4.32473070e-01  4.33949404e-01  4.36241878e-01
  4.39846193e-01  4.42356694e-01  4.44344595e-01  4.46150822e-01
  4.52121447e-01  4.52783024e-01  4.54072514e-01  4.55766950e-01
  4.57401630e-01  4.58454149e-01  4.68598517e-01  4.70051151e-01
  4.76246158e-01  4.78043280e-01  4.83289392e-01  4.84156494e-01
  4.86427132e-01  4.89318951e-01  4.89601753e-01  4.91974171e-01
  4.98126457e-01  4.99735562e-01  5.02964056e-01  5.09353010e-01
  5.10615158e-01  5.11186843e-01  5.14586127e-01  5.18743473e-01
  5.20430402e-01  5.20798770e-01  5.25303060e-01  5.27729756e-01
  5.33916506e-01  5.38288546e-01  5.40911653e-01  5.43029053e-01
  5.45862199e-01  5.47646406e-01  5.49674397e-01  5.55951817e-01
  5.57286850e-01  5.63835571e-01  5.64607738e-01  5.66361372e-01
  5.71215464e-01  5.74099543e-01  5.74762196e-01  5.76152161e-01
  5.78228862e-01  5.80717942e-01  5.81642323e-01  5.81961074e-01
  5.90254042e-01  5.95548146e-01  6.02811719e-01  6.05338583e-01
  6.07848241e-01  6.10219774e-01  6.14913180e-01  6.24686735e-01
  6.26443384e-01  6.41838542e-01  6.43589352e-01  6.44339179e-01
  6.46722223e-01  6.47538588e-01  6.48340958e-01  6.54562998e-01
  6.56835273e-01  6.60907009e-01  6.75278908e-01  6.79611980e-01
  6.86565989e-01  6.88383491e-01  6.90839444e-01  7.02359968e-01
  7.07404387e-01  7.08262164e-01  7.14347115e-01  7.18347136e-01
  7.26181478e-01  7.27904780e-01  7.28694516e-01  7.29265854e-01
  7.31390168e-01  7.35122719e-01  7.35655582e-01  7.38804282e-01
  7.40148121e-01  7.44026429e-01  7.44933833e-01  7.46152584e-01
  7.51885535e-01  7.52167838e-01  7.58490813e-01  7.60951434e-01
  7.63957282e-01  7.68242878e-01  7.70772027e-01  7.72025099e-01
  7.72317039e-01  7.78431236e-01  7.79606998e-01  7.86836793e-01
  7.88725049e-01  7.90568140e-01  7.93927264e-01  7.94844924e-01
  7.97691510e-01  7.97990815e-01  7.99036988e-01  8.00623625e-01
  8.05065495e-01  8.09052648e-01  8.11892383e-01  8.21970407e-01
  8.22629732e-01  8.24316114e-01  8.28511649e-01  8.37033757e-01
  8.40075469e-01  8.41487434e-01  8.47179806e-01  8.51706488e-01
  8.54867873e-01  8.56797440e-01  8.61104880e-01  8.63896007e-01
  8.65578610e-01  8.72422598e-01  8.72477362e-01  8.75684403e-01
  8.76484432e-01  8.76706967e-01  8.78574751e-01  8.85141402e-01
  8.91876682e-01  8.92493080e-01  8.93054898e-01  8.97615470e-01
  8.98501824e-01  9.00790593e-01  9.03216690e-01  9.05281695e-01
  9.09271945e-01  9.13270489e-01  9.17634504e-01  9.19105283e-01
  9.21423462e-01  9.22201281e-01  9.22826422e-01  9.31391491e-01
  9.36522827e-01  9.39582561e-01  9.39818594e-01  9.45481332e-01
  9.46148783e-01  9.48508599e-01  9.50212336e-01  9.52142882e-01
  9.55923753e-01  9.59742877e-01  9.60644566e-01  9.61468384e-01
  9.69220282e-01  9.70240771e-01  9.77135931e-01  9.79313479e-01
  9.85911514e-01  9.97952960e-01  9.99869613e-01  1.00312807e+00
  1.00608578e+00  1.00648351e+00  1.01331757e+00  1.01759019e+00
  1.01988491e+00  1.02131581e+00  1.02554210e+00  1.02648289e+00
  1.02798486e+00  1.03055264e+00  1.03148638e+00  1.03936290e+00
  1.04399110e+00  1.04830476e+00  1.04955658e+00  1.05331217e+00
  1.05764565e+00  1.06199229e+00  1.06392157e+00  1.06614926e+00
  1.07103025e+00  1.07254558e+00  1.07970236e+00  1.08013494e+00
  1.08274331e+00  1.08299933e+00  1.08644888e+00  1.09022135e+00
  1.09124038e+00  1.09494423e+00  1.10647994e+00  1.11103509e+00
  1.11541390e+00  1.12001141e+00  1.12581227e+00  1.12661448e+00
  1.12915721e+00  1.13778542e+00  1.13891308e+00  1.15518928e+00
  1.16318438e+00  1.16769239e+00  1.16966159e+00  1.18128083e+00
  1.18543728e+00  1.18833810e+00  1.18969609e+00  1.19218921e+00
  1.19456662e+00  1.19672669e+00  1.19842824e+00  1.20559450e+00
  1.20959477e+00  1.21046403e+00  1.21890332e+00  1.21999203e+00
  1.22386453e+00  1.23118907e+00  1.23508017e+00  1.24060768e+00
  1.24213738e+00  1.24630500e+00  1.25246482e+00  1.25330147e+00
  1.26115117e+00  1.26735988e+00  1.27020018e+00  1.27440632e+00
  1.27534088e+00  1.28118633e+00  1.28553818e+00  1.28884513e+00
  1.30022836e+00  1.31041180e+00  1.31434631e+00  1.31837167e+00
  1.31903478e+00  1.32334031e+00  1.32358007e+00  1.32742557e+00
  1.32968917e+00  1.33991341e+00  1.34222513e+00  1.34594942e+00
  1.35028841e+00  1.35264953e+00  1.36325084e+00  1.37132102e+00
  1.37802895e+00  1.37958379e+00  1.38119929e+00  1.38578537e+00
  1.39180407e+00  1.39396921e+00  1.39937430e+00  1.41895363e+00
  1.42288452e+00  1.43264525e+00  1.43671877e+00  1.43773848e+00
  1.44250470e+00  1.44472494e+00  1.44542327e+00  1.45053000e+00
  1.45913605e+00  1.46055761e+00  1.46322616e+00  1.46682835e+00
  1.47071101e+00  1.51246315e+00  1.53083569e+00  1.54406277e+00
  1.55024443e+00  1.56306709e+00  1.56920927e+00  1.58254046e+00
  1.63323461e+00  1.65649196e+00  1.67934460e+00  1.69441113e+00
  1.75817086e+00  1.81338605e+00  1.87505462e+00  1.90173919e+00
  1.90564471e+00  1.95541304e+00  1.99487445e+00  2.01113014e+00
  2.08198301e+00  2.12802622e+00  2.17079021e+00  2.25706669e+00
  2.29101005e+00  2.34919720e+00  2.40984863e+00  2.44590756e+00
  2.47941277e+00  2.48730733e+00  2.52250018e+00  2.55644549e+00
  2.62560040e+00  2.68076633e+00  2.70050417e+00  2.73096941e+00
  2.79502804e+00  2.80193572e+00  2.84577575e+00  2.87707534e+00
  2.88356231e+00  2.89024064e+00  2.98990713e+00  3.00897684e+00
  3.02358969e+00  3.07338949e+00  3.12359614e+00  3.13449262e+00
  3.15720344e+00  3.19304127e+00  3.21412542e+00  3.23763584e+00
  3.25237550e+00  3.25584385e+00  3.30534339e+00  3.30980453e+00
  3.31927089e+00  3.33672784e+00  3.34579122e+00  3.35905207e+00
  3.38425307e+00  3.39680000e+00  3.42662503e+00  3.43866073e+00
  3.44406388e+00  3.45014892e+00  3.47066351e+00  3.47852059e+00
  3.48615810e+00  3.48776389e+00  3.54130771e+00  3.54405945e+00
  3.57589760e+00  3.62367529e+00  3.68380497e+00  3.70615632e+00
  3.71733666e+00  3.73905390e+00  3.73988256e+00  3.76125377e+00
  3.78130883e+00  3.78348648e+00  3.81491271e+00  3.81791022e+00
  3.86755500e+00  3.86822774e+00  3.90534610e+00  3.93468249e+00
  3.96748738e+00  3.98001273e+00  4.03375213e+00  4.05550968e+00
  4.06773271e+00  4.08891721e+00  4.10847070e+00  4.16808949e+00
  4.25834138e+00  4.28669184e+00  4.29741505e+00  4.30649289e+00
  4.35815068e+00  4.39804045e+00  4.40682487e+00  4.44148785e+00
  4.45038574e+00  4.51359537e+00  4.52654721e+00  4.53370820e+00
  4.66555772e+00  4.68914312e+00  4.69592324e+00  4.73773113e+00
  4.79003579e+00  4.83568899e+00  4.84362944e+00  4.95805987e+00
  5.02191000e+00  5.06142391e+00  5.09474874e+00  5.15408872e+00
  5.18897987e+00  5.33592630e+00  5.34361799e+00  5.40854584e+00
  5.45050798e+00  5.50055902e+00  5.50285325e+00  5.54069493e+00
  5.60037700e+00  5.62570919e+00  5.62700357e+00  5.69865972e+00
  5.76592332e+00  5.76697664e+00  5.85960969e+00  5.89101470e+00
  5.99318720e+00  6.01108896e+00  6.09975625e+00  6.13075775e+00
  6.13188237e+00  6.15418802e+00  6.21353473e+00  6.22124248e+00
  6.29599263e+00  6.40087403e+00  6.45896999e+00  6.47364412e+00
  6.48364224e+00  6.60365341e+00  6.65848457e+00  6.73646035e+00
  6.81784982e+00  6.86208602e+00  6.91588225e+00  6.99346940e+00
  7.02381919e+00  7.06277016e+00  7.12697701e+00  7.21218242e+00
  7.23954906e+00  7.31125848e+00  7.34855157e+00  7.35501964e+00
  7.43803179e+00  7.48064602e+00  7.53252589e+00  7.54138424e+00
  7.75991454e+00  7.77055918e+00  7.95236444e+00  8.01020229e+00
  8.09988401e+00  8.47489182e+00  1.11914943e+01  1.31228440e+01
  1.33628539e+01  1.40880707e+01  1.59078821e+01  1.75160123e+01]
E1 = -1685.5453004287942  E_coul = 696.4432561563763
cycle= 4 E= -444.822333543715  delta_E= -0.00478  |g|= 0.0441  |ddm|= 0.236
    CPU time for cycle= 4    170.56 sec, wall time      5.36 sec
diis-norm(errvec)=0.191137
diis-c [-0.02029878 -0.05523421 -0.06034628  0.27224747  0.84333302]
  HOMO = -0.107694754346262  LUMO = -0.0127851771548282
  mo_energy =
[-2.06435574e+01 -2.06434948e+01 -2.05789092e+01 -1.14528340e+01
 -1.13131448e+01 -1.13121015e+01 -2.46419935e+00 -2.46388430e+00
 -2.46348216e+00 -2.46345548e+00 -2.43716251e+00 -2.43695174e+00
 -2.43692683e+00 -2.43672294e+00 -2.42862474e+00 -2.42827265e+00
 -2.42782994e+00 -2.42781482e+00 -2.42097089e+00 -2.39422219e+00
 -1.63901684e+00 -1.48686698e+00 -1.47177550e+00 -1.13316208e+00
 -9.86850231e-01 -8.99174155e-01 -8.33862700e-01 -8.06533764e-01
 -7.51347583e-01 -7.22579888e-01 -6.86443628e-01 -6.81376798e-01
 -6.12914348e-01 -5.88043330e-01 -5.41426128e-01 -5.27362689e-01
 -5.07698067e-01 -2.80504998e-01 -2.17717211e-01 -2.16578359e-01
 -1.75592215e-01 -1.64214818e-01 -1.25595092e-01 -1.07694754e-01
 -1.27851772e-02 -1.23944459e-02  4.84904641e-03  5.96508965e-03
  1.10481367e-02  1.38514296e-02  1.63027748e-02  2.06342946e-02
  2.57540482e-02  3.55197702e-02  3.79278140e-02  3.86437785e-02
  3.88137684e-02  4.38196034e-02  5.19371623e-02  5.24833406e-02
  5.37018397e-02  5.70100798e-02  5.87296833e-02  6.35427274e-02
  6.46266465e-02  6.51415113e-02  6.94922940e-02  7.08581502e-02
  7.16816322e-02  7.33248422e-02  7.85575519e-02  7.89756426e-02
  7.93284254e-02  8.30096082e-02  8.31378260e-02  8.32983303e-02
  8.52298450e-02  8.66622561e-02  8.71408303e-02  8.81876767e-02
  8.86585771e-02  9.52260820e-02  9.83984323e-02  1.01796594e-01
  1.05241659e-01  1.06060345e-01  1.09293356e-01  1.13927515e-01
  1.14351090e-01  1.16048325e-01  1.16750774e-01  1.21806352e-01
  1.22017417e-01  1.26614048e-01  1.35237475e-01  1.37720692e-01
  1.38885530e-01  1.39555522e-01  1.41621300e-01  1.44049304e-01
  1.45235933e-01  1.46211352e-01  1.52757954e-01  1.55973891e-01
  1.59906624e-01  1.63891129e-01  1.66666369e-01  1.70476821e-01
  1.72217073e-01  1.72781880e-01  1.74871470e-01  1.75081081e-01
  1.75400327e-01  1.80575706e-01  1.82388033e-01  1.82986505e-01
  1.92938863e-01  1.93903642e-01  1.98350391e-01  2.00689912e-01
  2.01850004e-01  2.04707446e-01  2.09672077e-01  2.10032802e-01
  2.14250192e-01  2.17294447e-01  2.19946165e-01  2.20119593e-01
  2.22904409e-01  2.23321423e-01  2.23606487e-01  2.25252842e-01
  2.26139068e-01  2.27357509e-01  2.36405683e-01  2.43262471e-01
  2.44110931e-01  2.46070954e-01  2.48023025e-01  2.53713548e-01
  2.54307814e-01  2.59132650e-01  2.61134576e-01  2.62999661e-01
  2.68829136e-01  2.69563830e-01  2.70269310e-01  2.77581925e-01
  2.78756813e-01  2.80945668e-01  2.86779201e-01  2.97906506e-01
  2.98670667e-01  2.99762219e-01  3.05251427e-01  3.07432958e-01
  3.12756840e-01  3.13663499e-01  3.15754734e-01  3.19616360e-01
  3.24360928e-01  3.27000730e-01  3.28341010e-01  3.29800215e-01
  3.30516216e-01  3.34776660e-01  3.35913873e-01  3.38663027e-01
  3.40986507e-01  3.47312288e-01  3.50386925e-01  3.56673659e-01
  3.60285040e-01  3.65755437e-01  3.69210365e-01  3.84717621e-01
  3.87931104e-01  3.88585478e-01  3.90592406e-01  3.92200184e-01
  3.93707652e-01  3.94061950e-01  4.03188346e-01  4.09269682e-01
  4.10379609e-01  4.11037654e-01  4.12176710e-01  4.12477114e-01
  4.15282500e-01  4.16859387e-01  4.17179497e-01  4.17339260e-01
  4.20703755e-01  4.30159078e-01  4.31912526e-01  4.34512338e-01
  4.37909174e-01  4.40534351e-01  4.42347483e-01  4.44564574e-01
  4.50196494e-01  4.50594218e-01  4.52057654e-01  4.52972250e-01
  4.54430693e-01  4.55900562e-01  4.64730076e-01  4.68810921e-01
  4.75141385e-01  4.76132230e-01  4.81411152e-01  4.83056155e-01
  4.85193819e-01  4.86835093e-01  4.87983675e-01  4.89411437e-01
  4.96321960e-01  4.97602087e-01  5.00195733e-01  5.07239004e-01
  5.08024066e-01  5.09943731e-01  5.13116328e-01  5.16381474e-01
  5.18019818e-01  5.18824045e-01  5.23599096e-01  5.24436235e-01
  5.31378195e-01  5.35705789e-01  5.38018554e-01  5.40353543e-01
  5.42915192e-01  5.45921809e-01  5.47113856e-01  5.53398213e-01
  5.54958931e-01  5.61618947e-01  5.62425452e-01  5.64833674e-01
  5.68404597e-01  5.71542162e-01  5.72431960e-01  5.73602841e-01
  5.75064396e-01  5.77899473e-01  5.79111689e-01  5.79288030e-01
  5.88298725e-01  5.92513349e-01  6.01202466e-01  6.03900908e-01
  6.06548533e-01  6.07934099e-01  6.12980209e-01  6.22538497e-01
  6.23049632e-01  6.39992805e-01  6.41150620e-01  6.41937931e-01
  6.44871201e-01  6.46503670e-01  6.47640756e-01  6.52038680e-01
  6.54816959e-01  6.59047200e-01  6.73120878e-01  6.76883570e-01
  6.83536183e-01  6.84369599e-01  6.87532411e-01  6.99177848e-01
  7.03831259e-01  7.04336291e-01  7.10788242e-01  7.16143676e-01
  7.23616270e-01  7.25508793e-01  7.26393107e-01  7.28516322e-01
  7.28699663e-01  7.32409579e-01  7.33461825e-01  7.36992038e-01
  7.37966884e-01  7.41246492e-01  7.42964426e-01  7.43556431e-01
  7.49546856e-01  7.51240741e-01  7.55126614e-01  7.58062884e-01
  7.61259660e-01  7.66653254e-01  7.69213389e-01  7.69595819e-01
  7.70900936e-01  7.74836432e-01  7.76775662e-01  7.85745514e-01
  7.86902883e-01  7.87901245e-01  7.91408123e-01  7.91963977e-01
  7.96197983e-01  7.96716449e-01  7.97373291e-01  7.97944036e-01
  8.02873295e-01  8.07960266e-01  8.10710526e-01  8.19946389e-01
  8.21279192e-01  8.22323100e-01  8.26473045e-01  8.34121288e-01
  8.38016411e-01  8.39617951e-01  8.45549604e-01  8.49895026e-01
  8.53096697e-01  8.55637155e-01  8.58907390e-01  8.62242090e-01
  8.64304632e-01  8.70134361e-01  8.70580067e-01  8.73639673e-01
  8.74803175e-01  8.75434639e-01  8.75932414e-01  8.82758979e-01
  8.89789805e-01  8.90206594e-01  8.92920360e-01  8.95563390e-01
  8.97495121e-01  8.98999500e-01  9.01800516e-01  9.03053541e-01
  9.06795700e-01  9.10234194e-01  9.13906120e-01  9.16390520e-01
  9.18113734e-01  9.19178937e-01  9.19994352e-01  9.28938597e-01
  9.34979004e-01  9.37619492e-01  9.38540504e-01  9.42994255e-01
  9.44259735e-01  9.46415820e-01  9.47089266e-01  9.49801514e-01
  9.53196741e-01  9.56804975e-01  9.57657125e-01  9.58741733e-01
  9.66584928e-01  9.67646134e-01  9.73782023e-01  9.76566788e-01
  9.82922086e-01  9.94623432e-01  9.96518242e-01  1.00011441e+00
  1.00366917e+00  1.00446137e+00  1.01152553e+00  1.01415662e+00
  1.01742841e+00  1.01826767e+00  1.02225680e+00  1.02358000e+00
  1.02456184e+00  1.02782442e+00  1.02843147e+00  1.03676750e+00
  1.04071392e+00  1.04528013e+00  1.04614864e+00  1.05012452e+00
  1.05530758e+00  1.05873954e+00  1.06162633e+00  1.06249716e+00
  1.06776547e+00  1.06966920e+00  1.07597413e+00  1.07744988e+00
  1.07937747e+00  1.07972401e+00  1.08273801e+00  1.08709294e+00
  1.08908032e+00  1.09086913e+00  1.10409390e+00  1.10916308e+00
  1.11253003e+00  1.11809949e+00  1.12224272e+00  1.12324112e+00
  1.12627649e+00  1.13550893e+00  1.13663273e+00  1.15265592e+00
  1.16029701e+00  1.16527379e+00  1.16636767e+00  1.17933217e+00
  1.18179710e+00  1.18433428e+00  1.18602178e+00  1.18810716e+00
  1.19108100e+00  1.19373688e+00  1.19422167e+00  1.20200875e+00
  1.20541267e+00  1.20693880e+00  1.21579901e+00  1.21702690e+00
  1.22010304e+00  1.22752916e+00  1.23169912e+00  1.23726791e+00
  1.23899421e+00  1.24267927e+00  1.24862155e+00  1.25043611e+00
  1.25738285e+00  1.26343239e+00  1.26604423e+00  1.26978511e+00
  1.27042428e+00  1.27706701e+00  1.28246024e+00  1.28529909e+00
  1.29519814e+00  1.30719296e+00  1.31028524e+00  1.31357123e+00
  1.31430594e+00  1.31902897e+00  1.31989006e+00  1.32253837e+00
  1.32471828e+00  1.33589504e+00  1.33713769e+00  1.34151834e+00
  1.34509162e+00  1.34783931e+00  1.35894033e+00  1.36675203e+00
  1.37318439e+00  1.37696052e+00  1.37702085e+00  1.38161324e+00
  1.38762122e+00  1.38963630e+00  1.39490166e+00  1.41532119e+00
  1.41886244e+00  1.42776837e+00  1.43137340e+00  1.43248243e+00
  1.43647631e+00  1.44009878e+00  1.44147901e+00  1.44565504e+00
  1.45421720e+00  1.45556954e+00  1.45831767e+00  1.46256205e+00
  1.46693263e+00  1.50945194e+00  1.52535535e+00  1.53920390e+00
  1.54654523e+00  1.55864802e+00  1.56583590e+00  1.58077645e+00
  1.62797981e+00  1.65519563e+00  1.67746668e+00  1.68922823e+00
  1.75467462e+00  1.81130019e+00  1.87158742e+00  1.89738347e+00
  1.90119798e+00  1.94963077e+00  1.98949254e+00  2.00937780e+00
  2.08005470e+00  2.12180584e+00  2.16809116e+00  2.25334836e+00
  2.29077066e+00  2.34770712e+00  2.40722494e+00  2.44179025e+00
  2.47302737e+00  2.48471173e+00  2.51876188e+00  2.55293718e+00
  2.62333860e+00  2.67637587e+00  2.69409825e+00  2.72672428e+00
  2.78944322e+00  2.79798217e+00  2.83989754e+00  2.87340626e+00
  2.87836690e+00  2.88651398e+00  2.98486334e+00  3.00418810e+00
  3.01786212e+00  3.06872756e+00  3.11791826e+00  3.13001798e+00
  3.15237606e+00  3.18930929e+00  3.20974495e+00  3.23361341e+00
  3.25243518e+00  3.25478064e+00  3.30188794e+00  3.30585467e+00
  3.31801606e+00  3.33507493e+00  3.33948941e+00  3.35437634e+00
  3.38292182e+00  3.39052421e+00  3.42212759e+00  3.43592503e+00
  3.44107411e+00  3.44789479e+00  3.46750194e+00  3.47446685e+00
  3.48137736e+00  3.48416898e+00  3.53768505e+00  3.54167380e+00
  3.57322134e+00  3.62004811e+00  3.67913320e+00  3.70203934e+00
  3.71214626e+00  3.73266104e+00  3.73324211e+00  3.75535791e+00
  3.77534355e+00  3.78008733e+00  3.80770689e+00  3.81302359e+00
  3.86475611e+00  3.86601371e+00  3.90305469e+00  3.93002705e+00
  3.96510509e+00  3.97705414e+00  4.03128289e+00  4.05281242e+00
  4.06538951e+00  4.08732366e+00  4.10452812e+00  4.16488175e+00
  4.25685130e+00  4.28478439e+00  4.29801436e+00  4.30361112e+00
  4.35073713e+00  4.39709706e+00  4.40380355e+00  4.43783923e+00
  4.44817798e+00  4.51251820e+00  4.52583486e+00  4.53174438e+00
  4.66266866e+00  4.68601117e+00  4.69047201e+00  4.72738084e+00
  4.78522973e+00  4.83211146e+00  4.84397707e+00  4.95481778e+00
  5.02059522e+00  5.06092098e+00  5.09294632e+00  5.15191002e+00
  5.18574269e+00  5.33458348e+00  5.34228161e+00  5.40592422e+00
  5.44855920e+00  5.49708094e+00  5.50174350e+00  5.53839481e+00
  5.59097545e+00  5.61771760e+00  5.62142987e+00  5.69582173e+00
  5.76347251e+00  5.76543871e+00  5.85841560e+00  5.88890534e+00
  5.99371990e+00  6.00735280e+00  6.09864291e+00  6.12595425e+00
  6.12801767e+00  6.15293400e+00  6.21364326e+00  6.21906426e+00
  6.29432672e+00  6.40117239e+00  6.45835045e+00  6.47369206e+00
  6.48417209e+00  6.60333297e+00  6.65773808e+00  6.73305846e+00
  6.81338438e+00  6.86061122e+00  6.91466687e+00  6.98573925e+00
  7.01397506e+00  7.05645244e+00  7.12065453e+00  7.21379557e+00
  7.24111446e+00  7.31357753e+00  7.35503240e+00  7.35964502e+00
  7.43974953e+00  7.47381252e+00  7.53780212e+00  7.53837052e+00
  7.75950004e+00  7.77597664e+00  7.94587453e+00  8.01071705e+00
  8.10405309e+00  8.46876195e+00  1.11904072e+01  1.31173383e+01
  1.33695317e+01  1.40821679e+01  1.58998602e+01  1.75020545e+01]
E1 = -1685.699303004338  E_coul = 696.5961122623629
cycle= 5 E= -444.823480013272  delta_E= -0.00115  |g|= 0.0125  |ddm|= 0.0716
    CPU time for cycle= 5    170.65 sec, wall time      5.36 sec
diis-norm(errvec)=0.0811705
diis-c [-0.00295197  0.02549771  0.01372268 -0.27818412 -0.25500796  1.4939717 ]
  HOMO = -0.106942284420451  LUMO = -0.0116730651580159
  mo_energy =
[-2.06524878e+01 -2.06524140e+01 -2.05827252e+01 -1.14528750e+01
 -1.13140405e+01 -1.13129971e+01 -2.46372296e+00 -2.46310585e+00
 -2.46293913e+00 -2.46280740e+00 -2.43754438e+00 -2.43752515e+00
 -2.43724499e+00 -2.43702117e+00 -2.42899546e+00 -2.42832319e+00
 -2.42810432e+00 -2.42793262e+00 -2.41743420e+00 -2.39248564e+00
 -1.64147131e+00 -1.48840799e+00 -1.47477859e+00 -1.13443503e+00
 -9.88953957e-01 -9.01553585e-01 -8.35673793e-01 -8.08204982e-01
 -7.53137319e-01 -7.24298909e-01 -6.87489062e-01 -6.83695265e-01
 -6.16044786e-01 -5.89821616e-01 -5.43491976e-01 -5.28934675e-01
 -5.10047175e-01 -2.79156689e-01 -2.17139580e-01 -2.16041100e-01
 -1.76372211e-01 -1.65126575e-01 -1.24431538e-01 -1.06942284e-01
 -1.16730652e-02 -1.13261183e-02  5.03742019e-03  6.11449836e-03
  1.09044550e-02  1.41362695e-02  1.66621218e-02  2.03966055e-02
  2.55811999e-02  3.56689635e-02  3.82265323e-02  3.86164872e-02
  3.90612831e-02  4.36715590e-02  5.20037678e-02  5.29143508e-02
  5.37562471e-02  5.74131202e-02  5.88490843e-02  6.36003556e-02
  6.46136893e-02  6.51120870e-02  6.96235166e-02  7.06974795e-02
  7.18403554e-02  7.33499728e-02  7.85824655e-02  7.92364310e-02
  7.96272730e-02  8.28777159e-02  8.30107835e-02  8.34477694e-02
  8.55315605e-02  8.70109926e-02  8.71095006e-02  8.83107119e-02
  8.87530746e-02  9.52983443e-02  9.87560017e-02  1.02128006e-01
  1.05213229e-01  1.06011984e-01  1.09660770e-01  1.14096891e-01
  1.14393429e-01  1.16345650e-01  1.16959535e-01  1.22472586e-01
  1.22649183e-01  1.26686893e-01  1.35270433e-01  1.38358039e-01
  1.39355859e-01  1.39705797e-01  1.41959481e-01  1.44191534e-01
  1.45404384e-01  1.46532057e-01  1.53126933e-01  1.55985203e-01
  1.60001691e-01  1.63950437e-01  1.66564853e-01  1.70561151e-01
  1.72256778e-01  1.73102983e-01  1.75391876e-01  1.75466707e-01
  1.75738511e-01  1.80727579e-01  1.82311128e-01  1.83130983e-01
  1.92976296e-01  1.93862364e-01  1.98276371e-01  2.00470455e-01
  2.01818467e-01  2.04643463e-01  2.09877674e-01  2.09953446e-01
  2.13888255e-01  2.17379551e-01  2.19792645e-01  2.20030282e-01
  2.22761267e-01  2.23677955e-01  2.23769200e-01  2.25575062e-01
  2.26187392e-01  2.27378728e-01  2.36587357e-01  2.43230179e-01
[...]
  2.44046624e-01  2.46941415e-01  2.48074833e-01  2.53512785e-01
  2.54493740e-01  2.59345545e-01  2.61458973e-01  2.62970978e-01
  2.69647568e-01  2.70178121e-01  2.70468339e-01  2.77758083e-01
  2.78956315e-01  2.82228888e-01  2.86785896e-01  2.97614475e-01
  2.98477880e-01  2.99519322e-01  3.05262911e-01  3.07840368e-01
  3.12644135e-01  3.13568475e-01  3.15774890e-01  3.19857368e-01
  3.24176624e-01  3.26992135e-01  3.28127194e-01  3.29858867e-01
  3.30561670e-01  3.34777288e-01  3.35800142e-01  3.38758144e-01
  3.41324540e-01  3.47035250e-01  3.50600049e-01  3.56258033e-01
  3.60596499e-01  3.66034709e-01  3.69414385e-01  3.84891100e-01
  3.87624253e-01  3.88694236e-01  3.90919867e-01  3.92443809e-01
  3.93875892e-01  3.94171253e-01  4.03071792e-01  4.09607150e-01
  4.10682708e-01  4.11286124e-01  4.12623554e-01  4.13505838e-01
  4.15297005e-01  4.16969757e-01  4.17265143e-01  4.17467624e-01
  4.20805997e-01  4.30561789e-01  4.32317361e-01  4.34575214e-01
  4.37909995e-01  4.40502925e-01  4.42759357e-01  4.44754922e-01
  4.50312847e-01  4.50837213e-01  4.52392860e-01  4.53343311e-01
  4.54480982e-01  4.56327708e-01  4.64853789e-01  4.69230397e-01
  4.75429178e-01  4.76201239e-01  4.81746344e-01  4.83289050e-01
  4.85247840e-01  4.86972146e-01  4.88007028e-01  4.89585994e-01
  4.96746881e-01  4.97661496e-01  5.00911406e-01  5.07223881e-01
  5.08218209e-01  5.09697619e-01  5.13064588e-01  5.16813643e-01
  5.18477376e-01  5.20051541e-01  5.23775033e-01  5.25688856e-01
  5.31244901e-01  5.35689975e-01  5.38573398e-01  5.40543861e-01
  5.42859878e-01  5.45816970e-01  5.47392028e-01  5.53080169e-01
  5.54915181e-01  5.61798936e-01  5.62631194e-01  5.65041666e-01
  5.68431033e-01  5.71634134e-01  5.72240350e-01  5.73790443e-01
  5.75145076e-01  5.77883760e-01  5.79040157e-01  5.81141334e-01
  5.88225353e-01  5.92443262e-01  6.01144801e-01  6.03800177e-01
  6.06558490e-01  6.08026357e-01  6.13180862e-01  6.22249806e-01
  6.23052209e-01  6.39492422e-01  6.40906655e-01  6.41882548e-01
  6.44585082e-01  6.46729097e-01  6.47571873e-01  6.51788846e-01
  6.54973436e-01  6.58592573e-01  6.72940543e-01  6.77027962e-01
  6.84012523e-01  6.85023023e-01  6.87315687e-01  6.99545151e-01
  7.04074055e-01  7.04837117e-01  7.11298075e-01  7.15672513e-01
  7.24047006e-01  7.26152484e-01  7.27053563e-01  7.28779550e-01
  7.29219686e-01  7.32962409e-01  7.34075504e-01  7.37525448e-01
  7.38203945e-01  7.41471492e-01  7.42899881e-01  7.43346455e-01
  7.49558214e-01  7.51589587e-01  7.55200668e-01  7.58048170e-01
  7.61507865e-01  7.66892836e-01  7.69853284e-01  7.70241188e-01
  7.70991304e-01  7.74887915e-01  7.76706620e-01  7.85410281e-01
  7.87283912e-01  7.87960613e-01  7.91467920e-01  7.92021503e-01
  7.96195442e-01  7.96840068e-01  7.97386362e-01  7.97884134e-01
  8.02856589e-01  8.08029665e-01  8.10713465e-01  8.19757524e-01
  8.21412873e-01  8.22450076e-01  8.26288424e-01  8.34352695e-01
  8.38479857e-01  8.39843057e-01  8.46036685e-01  8.50156020e-01
  8.53144597e-01  8.55921654e-01  8.58782524e-01  8.62350529e-01
  8.64500198e-01  8.70138437e-01  8.71130993e-01  8.73431876e-01
  8.75223449e-01  8.75823078e-01  8.76387027e-01  8.82532054e-01
  8.89943037e-01  8.90342271e-01  8.92973398e-01  8.95946749e-01
  8.97718088e-01  8.99310529e-01  9.02048812e-01  9.03344640e-01
  9.07108761e-01  9.10326223e-01  9.14344122e-01  9.16737994e-01
  9.18662580e-01  9.19891545e-01  9.20247040e-01  9.28707042e-01
  9.34827013e-01  9.37582392e-01  9.38693413e-01  9.43397143e-01
  9.44078634e-01  9.46210578e-01  9.47300115e-01  9.49638241e-01
  9.52989623e-01  9.56987840e-01  9.57756380e-01  9.58965529e-01
  9.66615581e-01  9.68118733e-01  9.73838049e-01  9.76514166e-01
  9.82872252e-01  9.94751460e-01  9.97105921e-01  1.00001773e+00
  1.00419835e+00  1.00444479e+00  1.01167944e+00  1.01440586e+00
  1.01710460e+00  1.01804787e+00  1.02244150e+00  1.02372165e+00
  1.02485509e+00  1.02782920e+00  1.02839228e+00  1.03711742e+00
  1.04104111e+00  1.04587896e+00  1.04636537e+00  1.05030011e+00
  1.05503208e+00  1.05898282e+00  1.06147518e+00  1.06330274e+00
  1.06770195e+00  1.07012189e+00  1.07631238e+00  1.07757253e+00
  1.07940835e+00  1.07975744e+00  1.08299271e+00  1.08715406e+00
  1.08953290e+00  1.09177233e+00  1.10364147e+00  1.10930924e+00
  1.11265414e+00  1.11819498e+00  1.12325664e+00  1.12413560e+00
  1.12619878e+00  1.13561356e+00  1.13680989e+00  1.15254245e+00
  1.16059272e+00  1.16562172e+00  1.16633547e+00  1.17956242e+00
  1.18199798e+00  1.18470999e+00  1.18631971e+00  1.18815819e+00
  1.19116257e+00  1.19392717e+00  1.19421209e+00  1.20209353e+00
  1.20541804e+00  1.20690522e+00  1.21533536e+00  1.21660712e+00
  1.22032200e+00  1.22865171e+00  1.23220590e+00  1.23757787e+00
  1.23920677e+00  1.24296398e+00  1.24871772e+00  1.24991748e+00
  1.25777030e+00  1.26319034e+00  1.26608422e+00  1.26963648e+00
  1.27049225e+00  1.27748210e+00  1.28202263e+00  1.28536669e+00
  1.29572622e+00  1.30701000e+00  1.31059217e+00  1.31374418e+00
  1.31491201e+00  1.31987560e+00  1.32004900e+00  1.32276211e+00
  1.32504568e+00  1.33580278e+00  1.33738801e+00  1.34164117e+00
  1.34548138e+00  1.34850660e+00  1.35968774e+00  1.36711285e+00
  1.37311932e+00  1.37715823e+00  1.37731605e+00  1.38242802e+00
  1.38773868e+00  1.38999219e+00  1.39552796e+00  1.41489856e+00
  1.41837195e+00  1.42761121e+00  1.43268252e+00  1.43281352e+00
  1.43667608e+00  1.44051825e+00  1.44127215e+00  1.44535667e+00
  1.45469683e+00  1.45665837e+00  1.45950366e+00  1.46241279e+00
  1.46658584e+00  1.50885335e+00  1.52542370e+00  1.53942415e+00
  1.54629372e+00  1.55817584e+00  1.56540437e+00  1.57986576e+00
  1.62773472e+00  1.65443148e+00  1.67637828e+00  1.68855445e+00
  1.75386688e+00  1.81018461e+00  1.87066266e+00  1.89652862e+00
  1.90049205e+00  1.94899938e+00  1.98847101e+00  2.00815779e+00
  2.07876405e+00  2.12067162e+00  2.16680742e+00  2.25215825e+00
  2.28938932e+00  2.34628619e+00  2.40593023e+00  2.44057210e+00
  2.47228998e+00  2.48338190e+00  2.51771157e+00  2.55177562e+00
  2.62215399e+00  2.67541033e+00  2.69328243e+00  2.72569841e+00
  2.78845017e+00  2.79698278e+00  2.83916773e+00  2.87234256e+00
  2.87737140e+00  2.88549861e+00  2.98374998e+00  3.00402193e+00
  3.01718004e+00  3.06768616e+00  3.11709959e+00  3.12909137e+00
  3.15166515e+00  3.18817377e+00  3.20845407e+00  3.23289669e+00
  3.25275420e+00  3.25481222e+00  3.30063516e+00  3.30489449e+00
  3.31762173e+00  3.33487604e+00  3.33873711e+00  3.35336072e+00
  3.38368623e+00  3.38968892e+00  3.42112004e+00  3.43543978e+00
  3.44029751e+00  3.44757020e+00  3.46673182e+00  3.47536725e+00
  3.48045719e+00  3.48373810e+00  3.53650369e+00  3.54028374e+00
  3.57188696e+00  3.61879350e+00  3.67798082e+00  3.70070556e+00
  3.71111517e+00  3.73235719e+00  3.73295204e+00  3.75644720e+00
  3.77418776e+00  3.77877976e+00  3.80751976e+00  3.81190595e+00
  3.86351806e+00  3.86467227e+00  3.90172500e+00  3.92894257e+00
  3.96367712e+00  3.97581572e+00  4.03007387e+00  4.05144485e+00
  4.06415151e+00  4.08595655e+00  4.10329665e+00  4.16349420e+00
  4.25544021e+00  4.28367076e+00  4.29627878e+00  4.30246642e+00
  4.35199042e+00  4.39558539e+00  4.40250163e+00  4.43673767e+00
  4.44677711e+00  4.51097802e+00  4.52449886e+00  4.53048558e+00
  4.66139045e+00  4.68469232e+00  4.68929976e+00  4.72603594e+00
  4.78358446e+00  4.83035386e+00  4.84222472e+00  4.95348648e+00
  5.01905366e+00  5.05930297e+00  5.09144317e+00  5.15058412e+00
  5.18395023e+00  5.33299281e+00  5.34079344e+00  5.40453676e+00
  5.44708922e+00  5.49555106e+00  5.49999285e+00  5.53705221e+00
  5.58956380e+00  5.61625376e+00  5.62004578e+00  5.69427827e+00
  5.76212457e+00  5.76383045e+00  5.85678258e+00  5.88712314e+00
  5.99182401e+00  6.00585747e+00  6.09685574e+00  6.12441963e+00
  6.12672466e+00  6.15137314e+00  6.21162354e+00  6.21730625e+00
  6.29274243e+00  6.39908199e+00  6.45659989e+00  6.47172088e+00
  6.48200242e+00  6.60130094e+00  6.65568983e+00  6.73112322e+00
  6.81139859e+00  6.85848805e+00  6.91246002e+00  6.98410151e+00
  7.01235175e+00  7.05463860e+00  7.11894091e+00  7.21145210e+00
  7.23873649e+00  7.31111118e+00  7.35229735e+00  7.35704831e+00
  7.43749326e+00  7.47182627e+00  7.53538715e+00  7.53611815e+00
  7.75720213e+00  7.77325550e+00  7.94401991e+00  8.00833216e+00
  8.10146069e+00  8.46713630e+00  1.11884307e+01  1.31158962e+01
  1.33663081e+01  1.40808599e+01  1.58993058e+01  1.75012829e+01]
E1 = -1685.6682560693814  E_coul = 696.5645947105899
cycle= 49 E= -444.823950630088  delta_E= 2.18e-08  |g|= 7.9e-05  |ddm|= 0.00317
    CPU time for cycle= 49    161.79 sec, wall time      5.09 sec
diis-norm(errvec)=0.000601864
diis-c [-2.87087671e-07  2.37977718e+00  4.44260498e-01  1.92374422e+00
 -3.89612261e+00  3.08077083e+00 -3.01805946e+00  1.00983954e+00
 -9.24210199e-01]
  HOMO = -0.107145460828978  LUMO = -0.0113100160401195
  mo_energy =
[-2.06492819e+01 -2.06492379e+01 -2.05806022e+01 -1.14522197e+01
 -1.13132962e+01 -1.13122525e+01 -2.46408123e+00 -2.46291067e+00
 -2.46257191e+00 -2.46236393e+00 -2.43941522e+00 -2.43907642e+00
 -2.43649567e+00 -2.43595107e+00 -2.42965135e+00 -2.42831833e+00
 -2.42816775e+00 -2.42811225e+00 -2.41678104e+00 -2.39236011e+00
 -1.64055437e+00 -1.48782059e+00 -1.47369925e+00 -1.13410820e+00
 -9.88341928e-01 -9.00773565e-01 -8.35180252e-01 -8.07801184e-01
 -7.52675963e-01 -7.23774266e-01 -6.87276091e-01 -6.83053906e-01
 -6.14969224e-01 -5.89212577e-01 -5.43135369e-01 -5.28512320e-01
 -5.09415964e-01 -2.79058878e-01 -2.17229317e-01 -2.16113915e-01
 -1.76635985e-01 -1.65872682e-01 -1.24067926e-01 -1.07145461e-01
 -1.13100160e-02 -1.09760332e-02  4.85927595e-03  5.95577119e-03
  1.08281630e-02  1.42874770e-02  1.68285307e-02  2.01889351e-02
  2.52967411e-02  3.57795181e-02  3.82085177e-02  3.85898025e-02
  3.90670182e-02  4.34802730e-02  5.19619660e-02  5.30961033e-02
  5.37315961e-02  5.76477836e-02  5.88620488e-02  6.36445314e-02
  6.45114619e-02  6.49926821e-02  6.95917075e-02  7.05675948e-02
  7.18380740e-02  7.32614280e-02  7.85963432e-02  7.93461986e-02
  7.97745016e-02  8.26943150e-02  8.28380648e-02  8.34241335e-02
  8.57034016e-02  8.67994680e-02  8.74706964e-02  8.82628307e-02
  8.87268152e-02  9.52385766e-02  9.90293468e-02  1.02379377e-01
  1.05179515e-01  1.05892096e-01  1.09799645e-01  1.14055113e-01
  1.14397372e-01  1.16496128e-01  1.16980264e-01  1.22964930e-01
  1.23123699e-01  1.26750500e-01  1.35238619e-01  1.38785928e-01
  1.39662237e-01  1.39740787e-01  1.42203229e-01  1.44429399e-01
  1.45574138e-01  1.46518339e-01  1.53311524e-01  1.55970491e-01
  1.59955339e-01  1.63890718e-01  1.66509236e-01  1.70565876e-01
  1.72164308e-01  1.73277543e-01  1.75433778e-01  1.75708663e-01
  1.75990305e-01  1.80758030e-01  1.82463023e-01  1.83126117e-01
  1.92846920e-01  1.93790619e-01  1.98081188e-01  2.00493758e-01
  2.01763250e-01  2.04615068e-01  2.09901781e-01  2.09971734e-01
  2.13875613e-01  2.17390421e-01  2.19498763e-01  2.19929540e-01
  2.22721359e-01  2.23836779e-01  2.23851156e-01  2.25685299e-01
  2.26301109e-01  2.27269168e-01  2.36714774e-01  2.43180042e-01
  2.44046309e-01  2.46939091e-01  2.48074725e-01  2.53512242e-01
  2.54492749e-01  2.59344414e-01  2.61458020e-01  2.62970477e-01
  2.69645027e-01  2.70176699e-01  2.70465244e-01  2.77756775e-01
  2.78954606e-01  2.82225641e-01  2.86784830e-01  2.97613864e-01
  2.98477157e-01  2.99518868e-01  3.05262023e-01  3.07839096e-01
  3.12643592e-01  3.13567663e-01  3.15774257e-01  3.19855038e-01
  3.24175878e-01  3.26990471e-01  3.28127707e-01  3.29857041e-01
  3.30561484e-01  3.34776124e-01  3.35799356e-01  3.38757049e-01
  3.41322195e-01  3.47034696e-01  3.50599137e-01  3.56257761e-01
  3.60594766e-01  3.66033189e-01  3.69413669e-01  3.84889425e-01
  3.87623874e-01  3.88692816e-01  3.90918553e-01  3.92442588e-01
  3.93874722e-01  3.94169314e-01  4.03071945e-01  4.09605717e-01
  4.10682504e-01  4.11283688e-01  4.12622731e-01  4.13502170e-01
  4.15296550e-01  4.16968712e-01  4.17264855e-01  4.17467525e-01
  4.20803594e-01  4.30559968e-01  4.32315484e-01  4.34574193e-01
  4.37910234e-01  4.40501356e-01  4.42757261e-01  4.44754278e-01
  4.50309842e-01  4.50835971e-01  4.52390803e-01  4.53341402e-01
  4.54479467e-01  4.56325170e-01  4.64851670e-01  4.69229013e-01
  4.75427735e-01  4.76200277e-01  4.81744610e-01  4.83287884e-01
  4.85246911e-01  4.86970680e-01  4.88006821e-01  4.89584308e-01
  4.96745128e-01  4.97660415e-01  5.00908391e-01  5.07222482e-01
  5.08216358e-01  5.09697164e-01  5.13063809e-01  5.16810944e-01
  5.18474412e-01  5.20048040e-01  5.23773926e-01  5.25685412e-01
  5.31243899e-01  5.35689037e-01  5.38571546e-01  5.40541709e-01
  5.42858074e-01  5.45816616e-01  5.47389841e-01  5.53079315e-01
  5.54913887e-01  5.61796587e-01  5.62630103e-01  5.65041335e-01
  5.68429352e-01  5.71632543e-01  5.72239253e-01  5.73788453e-01
  5.75142849e-01  5.77882547e-01  5.79038936e-01  5.81136043e-01
  5.88224494e-01  5.92442032e-01  6.01144035e-01  6.03799624e-01
  6.06557906e-01  6.08025180e-01  6.13179745e-01  6.22249497e-01
  6.23050190e-01  6.39492084e-01  6.40905890e-01  6.41880903e-01
  6.44584505e-01  6.46728671e-01  6.47571522e-01  6.51788564e-01
  6.54972754e-01  6.58592462e-01  6.72940464e-01  6.77026410e-01
  6.84010671e-01  6.85019252e-01  6.87315103e-01  6.99543145e-01
  7.04072126e-01  7.04833174e-01  7.11295097e-01  7.15670777e-01
  7.24045431e-01  7.26150367e-01  7.27050258e-01  7.28777793e-01
  7.29218706e-01  7.32959327e-01  7.34073159e-01  7.37523314e-01
  7.38204199e-01  7.41469848e-01  7.42898173e-01  7.43345857e-01
  7.49556494e-01  7.51588698e-01  7.55198478e-01  7.58046786e-01
  7.61505637e-01  7.66891562e-01  7.69850975e-01  7.70239167e-01
  7.70990164e-01  7.74887181e-01  7.76703958e-01  7.85408700e-01
  7.87283633e-01  7.87959184e-01  7.91467120e-01  7.92018000e-01
  7.96192389e-01  7.96841343e-01  7.97385685e-01  7.97880924e-01
  8.02855334e-01  8.08029072e-01  8.10712178e-01  8.19756809e-01
  8.21410717e-01  8.22448175e-01  8.26287866e-01  8.34350569e-01
  8.38479320e-01  8.39840395e-01  8.46034977e-01  8.50153812e-01
  8.53142982e-01  8.55920716e-01  8.58780251e-01  8.62349837e-01
  8.64499893e-01  8.70137062e-01  8.71129125e-01  8.73430386e-01
  8.75221720e-01  8.75821496e-01  8.76384327e-01  8.82530968e-01
  8.89940169e-01  8.90341325e-01  8.92973457e-01  8.95945364e-01
  8.97717860e-01  8.99307522e-01  9.02047355e-01  9.03343592e-01
  9.07106654e-01  9.10323980e-01  9.14341240e-01  9.16736669e-01
  9.18659153e-01  9.19889271e-01  9.20242900e-01  9.28705476e-01
  9.34825912e-01  9.37580248e-01  9.38692544e-01  9.43394960e-01
  9.44077338e-01  9.46210114e-01  9.47298571e-01  9.49636233e-01
  9.52988047e-01  9.56986475e-01  9.57754124e-01  9.58963332e-01
  9.66614461e-01  9.68114804e-01  9.73837641e-01  9.76512797e-01
  9.82870410e-01  9.94748975e-01  9.97102478e-01  1.00001660e+00
  1.00419690e+00  1.00444200e+00  1.01167844e+00  1.01440378e+00
  1.01710410e+00  1.01804601e+00  1.02243813e+00  1.02372064e+00
  1.02485204e+00  1.02782639e+00  1.02839117e+00  1.03711440e+00
  1.04103922e+00  1.04587513e+00  1.04636401e+00  1.05029771e+00
  1.05503135e+00  1.05898045e+00  1.06147367e+00  1.06329940e+00
  1.06770053e+00  1.07011939e+00  1.07630982e+00  1.07757140e+00
  1.07940604e+00  1.07975546e+00  1.08299035e+00  1.08715238e+00
  1.08953144e+00  1.09176920e+00  1.10364116e+00  1.10930818e+00
  1.11265277e+00  1.11819454e+00  1.12325265e+00  1.12413248e+00
  1.12619676e+00  1.13561043e+00  1.13681009e+00  1.15253979e+00
  1.16059196e+00  1.16562013e+00  1.16633443e+00  1.17956142e+00
  1.18199621e+00  1.18470672e+00  1.18631697e+00  1.18815542e+00
  1.19116041e+00  1.19392600e+00  1.19420909e+00  1.20209118e+00
  1.20541520e+00  1.20690367e+00  1.21533438e+00  1.21660601e+00
  1.22031938e+00  1.22864735e+00  1.23220303e+00  1.23757669e+00
  1.23920421e+00  1.24296181e+00  1.24871448e+00  1.24991683e+00
  1.25776761e+00  1.26318825e+00  1.26608218e+00  1.26963383e+00
  1.27048935e+00  1.27747883e+00  1.28202206e+00  1.28536465e+00
  1.29572323e+00  1.30700818e+00  1.31058925e+00  1.31374168e+00
  1.31490864e+00  1.31987138e+00  1.32004601e+00  1.32275848e+00
  1.32504326e+00  1.33579981e+00  1.33738628e+00  1.34163811e+00
  1.34547818e+00  1.34850302e+00  1.35968430e+00  1.36710956e+00
  1.37311644e+00  1.37715576e+00  1.37731441e+00  1.38242465e+00
  1.38773647e+00  1.38999100e+00  1.39552360e+00  1.41489760e+00
  1.41837137e+00  1.42761075e+00  1.43267889e+00  1.43280932e+00
  1.43667176e+00  1.44051435e+00  1.44127050e+00  1.44535438e+00
  1.45469381e+00  1.45665354e+00  1.45949897e+00  1.46241164e+00
  1.46658475e+00  1.50885225e+00  1.52542027e+00  1.53942102e+00
  1.54629162e+00  1.55817570e+00  1.56540371e+00  1.57986655e+00
  1.62773398e+00  1.65442984e+00  1.67637881e+00  1.68855489e+00
  1.75386747e+00  1.81018644e+00  1.87066334e+00  1.89652929e+00
  1.90049242e+00  1.94900120e+00  1.98847381e+00  2.00815652e+00
  2.07876302e+00  2.12067535e+00  2.16680788e+00  2.25215901e+00
  2.28938660e+00  2.34628529e+00  2.40593016e+00  2.44057346e+00
  2.47229055e+00  2.48338207e+00  2.51771278e+00  2.55177523e+00
  2.62215388e+00  2.67541153e+00  2.69328496e+00  2.72569982e+00
  2.78845217e+00  2.79698413e+00  2.83916889e+00  2.87234288e+00
  2.87737355e+00  2.88549924e+00  2.98375154e+00  3.00402148e+00
  3.01718068e+00  3.06768782e+00  3.11710076e+00  3.12909298e+00
  3.15166572e+00  3.18817512e+00  3.20845523e+00  3.23289789e+00
  3.25275322e+00  3.25481160e+00  3.30063656e+00  3.30489509e+00
  3.31762244e+00  3.33487620e+00  3.33873857e+00  3.35336204e+00
  3.38368400e+00  3.38968917e+00  3.42112094e+00  3.43543993e+00
  3.44029797e+00  3.44757040e+00  3.46673228e+00  3.47536404e+00
  3.48045872e+00  3.48373743e+00  3.53650409e+00  3.54028404e+00
  3.57188644e+00  3.61879364e+00  3.67798144e+00  3.70070556e+00
  3.71111771e+00  3.73235285e+00  3.73294768e+00  3.75644075e+00
  3.77419074e+00  3.77877982e+00  3.80751450e+00  3.81190604e+00
  3.86351870e+00  3.86467381e+00  3.90172627e+00  3.92894378e+00
  3.96367709e+00  3.97581746e+00  4.03007529e+00  4.05144662e+00
  4.06415279e+00  4.08595768e+00  4.10329729e+00  4.16349540e+00
  4.25544123e+00  4.28367161e+00  4.29627761e+00  4.30246735e+00
  4.35198397e+00  4.39558576e+00  4.40250351e+00  4.43673887e+00
  4.44677909e+00  4.51097828e+00  4.52450027e+00  4.53048688e+00
  4.66139174e+00  4.68469551e+00  4.68930163e+00  4.72604712e+00
  4.78359031e+00  4.83035649e+00  4.84222328e+00  4.95348721e+00
  5.01905410e+00  5.05930176e+00  5.09144372e+00  5.15058499e+00
  5.18395197e+00  5.33299225e+00  5.34079272e+00  5.40453863e+00
  5.44709028e+00  5.49555373e+00  5.49999250e+00  5.53705357e+00
  5.58957351e+00  5.61626309e+00  5.62004926e+00  5.69428022e+00
  5.76212550e+00  5.76383027e+00  5.85678182e+00  5.88712408e+00
  5.99182130e+00  6.00585971e+00  6.09685427e+00  6.12442392e+00
  6.12672535e+00  6.15137170e+00  6.21162081e+00  6.21730580e+00
  6.29274184e+00  6.39907824e+00  6.45659800e+00  6.47171828e+00
  6.48199889e+00  6.60129921e+00  6.65568664e+00  6.73112430e+00
  6.81140236e+00  6.85848705e+00  6.91245935e+00  6.98410947e+00
  7.01236351e+00  7.05464286e+00  7.11894490e+00  7.21144867e+00
  7.23873264e+00  7.31110613e+00  7.35228900e+00  7.35704218e+00
  7.43749176e+00  7.47183266e+00  7.53538106e+00  7.53611909e+00
  7.75720195e+00  7.77324807e+00  7.94402547e+00  8.00833058e+00
  8.10145442e+00  8.46713931e+00  1.11884283e+01  1.31158988e+01
  1.33662980e+01  1.40808618e+01  1.58993084e+01  1.75012914e+01]
E1 = -1685.6684349460884  E_coul = 696.5647736286999
cycle= 50 E= -444.823950588685  delta_E= 4.14e-08  |g|= 6.75e-05  |ddm|= 0.000885
    CPU time for cycle= 50    161.70 sec, wall time      5.08 sec
    CPU time for scf_cycle   9282.57 sec, wall time    292.14 sec
    CPU time for SCF   9282.60 sec, wall time    292.14 sec
SCF not converged.
SCF energy = -444.823950588685
