#INFO: **** input file is /burg/ccce/users/eav2136/projects/batteries/01_mp2/hf_script.py ****
#!/usr/bin/env python3
from pyscf import gto, scf, mp
import sys
from fileutils import dump
import h5py

mol = gto.Mole()
mol.verbose = 10
mol.atom = f"geom_{sys.argv[1]}.xyz"
mol.basis = "ccpvtz"
mol.unit = "ANG"
mol.build()

mf = scf.RHF(mol)
# determine the output of mf.kernel()
mf.kernel()

conv = mf.converged
e_tot = mf.e_tot
mo_energy = mf.mo_energy
mo_coeff = mf.mo_coeff

dataout = {}
dataout["e_tot"] = e_tot
dataout["conv"] = conv
dump(dataout, f"data/hf_geom_{sys.argv[1]}.json")

with h5py.File(f"data/hf_geom_{sys.argv[1]}.h5", "w") as f:
    f.create_dataset("mo_energy", data=mo_energy)
    f.create_dataset("mo_coeff", data=mo_coeff)#INFO: ******************** input file end ********************


System: uname_result(system='Linux', node='g102', release='4.18.0-193.el8.x86_64', version='#1 SMP Fri Mar 27 14:35:58 UTC 2020', machine='x86_64')  Threads 32
Python 3.10.12 (main, Jul 29 2023, 11:27:27) [GCC 13.2.0]
numpy 1.25.1  scipy 1.10.1
Date: Fri Jan 19 11:54:48 2024
PySCF version 2.0.1
PySCF path  /burg/berkelbach/users/eav2136/builds/pyscf/projected-cvs/pyscf
GIT ORIG_HEAD 0bfbc692adf3ea63b8a509210433219cd1c472a2
GIT HEAD (branch projected-cvs) e14caaa2dddc538b9be2d86f01e5b456fc92da36

[ENV] PYSCF_TMPDIR /burg/ccce/users/eav2136/projects/batteries/01_mp2/tmp
[ENV] PYSCF_MAX_MEMORY 700000
[CONFIG] DEBUG = False
[CONFIG] MAX_MEMORY = 700000
[CONFIG] TMPDIR = /burg/ccce/users/eav2136/projects/batteries/01_mp2/tmp
[CONFIG] UNIT = angstrom
[CONFIG] VERBOSE = 3
[CONFIG] conf_file = None
[INPUT] verbose = 10
[INPUT] max_memory = 700000 
[INPUT] num. atoms = 42
[INPUT] num. electrons = 142
[INPUT] charge = 0
[INPUT] spin (= nelec alpha-beta = 2S) = 0
[INPUT] symmetry False subgroup None
[INPUT] Mole.unit = ANG
[INPUT]  1 C      4.889700000000   4.599650000000  10.258310000000 AA    9.240193831286   8.692078768856  19.385396400887 Bohr
[INPUT]  2 O      4.870170000000   4.245790000000   8.952570000000 AA    9.203287480073   8.023380282417  16.917905410997 Bohr
[INPUT]  3 C      5.310840000000   5.193710000000   8.233300000000 AA   10.036033091385   9.814689470415  15.558682101382 Bohr
[INPUT]  4 O      5.765780000000   6.111200000000   8.982240000000 AA   10.895745094495  11.548494292442  16.973973585113 Bohr
[INPUT]  5 C      5.774150000000   5.702340000000  10.272330000000 AA   10.911562102157  10.775860869152  19.411890361153 Bohr
[INPUT]  6 O      5.299720000000   5.216150000000   7.112960000000 AA   10.015019336880   9.857094924650  13.441546334986 Bohr
[INPUT]  7 H      5.212360000000   3.798320000000  10.814180000000 AA    9.849932862638   7.177784533458  20.435838461749 Bohr
[INPUT]  8 H      3.953110000000   4.871240000000  10.548100000000 AA    7.470295240279   9.205309487026  19.933020134525 Bohr
[INPUT]  9 H      5.464720000000   6.479910000000  10.867980000000 AA   10.326824147433  12.245255211830  20.537505727251 Bohr
[INPUT] 10 H      6.716790000000   5.418990000000  10.529430000000 AA   12.692893536217  10.240406971757  19.897738947779 Bohr
[INPUT] 11 Li     5.263950000000   5.263950000000   5.263950000000 AA    9.947423833404   9.947423833404   9.947423833404 Bohr
[INPUT] 12 Li     5.263950000000   1.754650000000   5.263950000000 AA    9.947423833404   3.315807944468   9.947423833404 Bohr
[INPUT] 13 Li     8.773250000000   5.263950000000   5.263950000000 AA   16.579039722340   9.947423833404   9.947423833404 Bohr
[INPUT] 14 Li     1.754650000000   5.263950000000   5.263950000000 AA    3.315807944468   9.947423833404   9.947423833404 Bohr
[INPUT] 15 Li     5.263950000000   8.773250000000   5.263950000000 AA    9.947423833404  16.579039722340   9.947423833404 Bohr
[INPUT] 16 Li     7.018600000000   3.509300000000   3.509300000000 AA   13.263231777872   6.631615888936   6.631615888936 Bohr
[INPUT] 17 Li     3.509300000000   3.509300000000   3.509300000000 AA    6.631615888936   6.631615888936   6.631615888936 Bohr
[INPUT] 18 Li     7.018600000000   7.018600000000   3.509300000000 AA   13.263231777872  13.263231777872   6.631615888936 Bohr
[INPUT] 19 Li     3.509300000000   7.018600000000   3.509300000000 AA    6.631615888936  13.263231777872   6.631615888936 Bohr
[INPUT] 20 Li     8.773250000000   1.754650000000   5.263950000000 AA   16.579039722340   3.315807944468   9.947423833404 Bohr
[INPUT] 21 Li     1.754650000000   1.754650000000   5.263950000000 AA    3.315807944468   3.315807944468   9.947423833404 Bohr
[INPUT] 22 Li     8.773250000000   8.773250000000   5.263950000000 AA   16.579039722340  16.579039722340   9.947423833404 Bohr
[INPUT] 23 Li     1.754650000000   8.773250000000   5.263950000000 AA    3.315807944468  16.579039722340   9.947423833404 Bohr
[INPUT] 24 Li     5.263950000000   5.263950000000   1.754650000000 AA    9.947423833404   9.947423833404   3.315807944468 Bohr
[INPUT] 25 Li     5.263950000000   1.754650000000   1.754650000000 AA    9.947423833404   3.315807944468   3.315807944468 Bohr
[INPUT] 26 Li     8.773250000000   5.263950000000   1.754650000000 AA   16.579039722340   9.947423833404   3.315807944468 Bohr
[INPUT] 27 Li     1.754650000000   5.263950000000   1.754650000000 AA    3.315807944468   9.947423833404   3.315807944468 Bohr
[INPUT] 28 Li     5.263950000000   8.773250000000   1.754650000000 AA    9.947423833404  16.579039722340   3.315807944468 Bohr
[INPUT] 29 Li     7.018600000000   0.000000000000   3.509300000000 AA   13.263231777872   0.000000000000   6.631615888936 Bohr
[INPUT] 30 Li     3.509300000000   0.000000000000   3.509300000000 AA    6.631615888936   0.000000000000   6.631615888936 Bohr
[INPUT] 31 Li     0.000000000000   3.509300000000   3.509300000000 AA    0.000000000000   6.631615888936   6.631615888936 Bohr
[INPUT] 32 Li     0.000000000000   7.018600000000   3.509300000000 AA    0.000000000000  13.263231777872   6.631615888936 Bohr
[INPUT] 33 Li     8.773250000000   1.754650000000   1.754650000000 AA   16.579039722340   3.315807944468   3.315807944468 Bohr
[INPUT] 34 Li     1.754650000000   1.754650000000   1.754650000000 AA    3.315807944468   3.315807944468   3.315807944468 Bohr
[INPUT] 35 Li     8.773250000000   8.773250000000   1.754650000000 AA   16.579039722340  16.579039722340   3.315807944468 Bohr
[INPUT] 36 Li     1.754650000000   8.773250000000   1.754650000000 AA    3.315807944468  16.579039722340   3.315807944468 Bohr
[INPUT] 37 Li     7.018600000000   3.509300000000   0.000000000000 AA   13.263231777872   6.631615888936   0.000000000000 Bohr
[INPUT] 38 Li     3.509300000000   3.509300000000   0.000000000000 AA    6.631615888936   6.631615888936   0.000000000000 Bohr
[INPUT] 39 Li     7.018600000000   7.018600000000   0.000000000000 AA   13.263231777872  13.263231777872   0.000000000000 Bohr
[INPUT] 40 Li     3.509300000000   7.018600000000   0.000000000000 AA    6.631615888936  13.263231777872   0.000000000000 Bohr
[INPUT] 41 Li     0.000000000000   0.000000000000   3.509300000000 AA    0.000000000000   0.000000000000   6.631615888936 Bohr
[INPUT] 42 Li     7.018600000000   0.000000000000   0.000000000000 AA   13.263231777872   0.000000000000   0.000000000000 Bohr
[INPUT] ---------------- BASIS SET ---------------- 
[INPUT] l, kappa, [nprim/nctr], expnt,             c_1 c_2 ...
[INPUT] Li
[INPUT] 0    0    [9    /2   ]  5988              0.000133 -2.1e-05
                                898.9             0.001025 -0.000161
                                205.9             0.005272 -0.00082
                                59.24             0.020929 -0.003326
                                19.87             0.06634 -0.010519
                                7.406             0.165775 -0.028097
                                2.93              0.315038 -0.055936
                                1.189             0.393523 -0.099237
                                0.4798            0.19087 -0.112189
[INPUT] 0    0    [1    /1   ]  0.07509              1
[INPUT] 0    0    [1    /1   ]  0.02832              1
[INPUT] 1    0    [3    /1   ]  3.266             0.00863
                                0.6511            0.047538
                                0.1696            0.209772
[INPUT] 1    0    [1    /1   ]  0.05578              1
[INPUT] 1    0    [1    /1   ]  0.0205               1
[INPUT] 2    0    [1    /1   ]  0.1874               1
[INPUT] 2    0    [1    /1   ]  0.0801               1
[INPUT] 3    0    [1    /1   ]  0.1829               1
[INPUT] H
[INPUT] 0    0    [3    /1   ]  33.87             0.006068
                                5.095             0.045308
                                1.159             0.202822
[INPUT] 0    0    [1    /1   ]  0.3258               1
[INPUT] 0    0    [1    /1   ]  0.1027               1
[INPUT] 1    0    [1    /1   ]  1.407                1
[INPUT] 1    0    [1    /1   ]  0.388                1
[INPUT] 2    0    [1    /1   ]  1.057                1
[INPUT] C
[INPUT] 0    0    [8    /2   ]  8236              0.000531 -0.000113
                                1235              0.004108 -0.000878
                                280.8             0.021087 -0.00454
                                79.27             0.081853 -0.018133
                                25.59             0.234817 -0.05576
                                8.997             0.434401 -0.126895
                                3.319             0.346129 -0.170352
                                0.3643            -0.008983 0.598684
[INPUT] 0    0    [1    /1   ]  0.9059               1
[INPUT] 0    0    [1    /1   ]  0.1285               1
[INPUT] 1    0    [3    /1   ]  18.71             0.014031
                                4.133             0.086866
                                1.2               0.290216
[INPUT] 1    0    [1    /1   ]  0.3827               1
[INPUT] 1    0    [1    /1   ]  0.1209               1
[INPUT] 2    0    [1    /1   ]  1.097                1
[INPUT] 2    0    [1    /1   ]  0.318                1
[INPUT] 3    0    [1    /1   ]  0.761                1
[INPUT] O
[INPUT] 0    0    [8    /2   ]  15330             0.000508 -0.000115
                                2299              0.003929 -0.000895
                                522.4             0.020243 -0.004636
                                147.3             0.079181 -0.018724
                                47.55             0.230687 -0.058463
                                16.76             0.433118 -0.136463
                                6.207             0.35026 -0.17574
                                0.6882            -0.008154 0.603418
[INPUT] 0    0    [1    /1   ]  1.752                1
[INPUT] 0    0    [1    /1   ]  0.2384               1
[INPUT] 1    0    [3    /1   ]  34.46             0.015928
                                7.749             0.09974
                                2.28              0.310492
[INPUT] 1    0    [1    /1   ]  0.7156               1
[INPUT] 1    0    [1    /1   ]  0.214                1
[INPUT] 2    0    [1    /1   ]  2.314                1
[INPUT] 2    0    [1    /1   ]  0.645                1
[INPUT] 3    0    [1    /1   ]  1.428                1

nuclear repulsion = 1051.17770785763
number of shells = 366
number of NR pGTOs = 1692
number of NR cGTOs = 1196
basis = ccpvtz
ecp = {}
bas 0, expnt(s) = [8.236e+03 1.235e+03 2.808e+02 7.927e+01 2.559e+01 8.997e+00 3.319e+00
 3.643e-01]
bas 1, expnt(s) = [0.9059]
bas 2, expnt(s) = [0.1285]
bas 3, expnt(s) = [18.71   4.133  1.2  ]
bas 4, expnt(s) = [0.3827]
bas 5, expnt(s) = [0.1209]
bas 6, expnt(s) = [1.097]
bas 7, expnt(s) = [0.318]
bas 8, expnt(s) = [0.761]
bas 9, expnt(s) = [1.533e+04 2.299e+03 5.224e+02 1.473e+02 4.755e+01 1.676e+01 6.207e+00
 6.882e-01]
bas 10, expnt(s) = [1.752]
bas 11, expnt(s) = [0.2384]
bas 12, expnt(s) = [34.46   7.749  2.28 ]
bas 13, expnt(s) = [0.7156]
bas 14, expnt(s) = [0.214]
bas 15, expnt(s) = [2.314]
bas 16, expnt(s) = [0.645]
bas 17, expnt(s) = [1.428]
bas 18, expnt(s) = [8.236e+03 1.235e+03 2.808e+02 7.927e+01 2.559e+01 8.997e+00 3.319e+00
 3.643e-01]
bas 19, expnt(s) = [0.9059]
bas 20, expnt(s) = [0.1285]
bas 21, expnt(s) = [18.71   4.133  1.2  ]
bas 22, expnt(s) = [0.3827]
bas 23, expnt(s) = [0.1209]
bas 24, expnt(s) = [1.097]
bas 25, expnt(s) = [0.318]
bas 26, expnt(s) = [0.761]
bas 27, expnt(s) = [1.533e+04 2.299e+03 5.224e+02 1.473e+02 4.755e+01 1.676e+01 6.207e+00
 6.882e-01]
bas 28, expnt(s) = [1.752]
bas 29, expnt(s) = [0.2384]
bas 30, expnt(s) = [34.46   7.749  2.28 ]
bas 31, expnt(s) = [0.7156]
bas 32, expnt(s) = [0.214]
bas 33, expnt(s) = [2.314]
bas 34, expnt(s) = [0.645]
bas 35, expnt(s) = [1.428]
bas 36, expnt(s) = [8.236e+03 1.235e+03 2.808e+02 7.927e+01 2.559e+01 8.997e+00 3.319e+00
 3.643e-01]
bas 37, expnt(s) = [0.9059]
bas 38, expnt(s) = [0.1285]
bas 39, expnt(s) = [18.71   4.133  1.2  ]
bas 40, expnt(s) = [0.3827]
bas 41, expnt(s) = [0.1209]
bas 42, expnt(s) = [1.097]
bas 43, expnt(s) = [0.318]
bas 44, expnt(s) = [0.761]
bas 45, expnt(s) = [1.533e+04 2.299e+03 5.224e+02 1.473e+02 4.755e+01 1.676e+01 6.207e+00
 6.882e-01]
bas 46, expnt(s) = [1.752]
bas 47, expnt(s) = [0.2384]
bas 48, expnt(s) = [34.46   7.749  2.28 ]
bas 49, expnt(s) = [0.7156]
bas 50, expnt(s) = [0.214]
bas 51, expnt(s) = [2.314]
bas 52, expnt(s) = [0.645]
bas 53, expnt(s) = [1.428]
bas 54, expnt(s) = [33.87   5.095  1.159]
bas 55, expnt(s) = [0.3258]
bas 56, expnt(s) = [0.1027]
bas 57, expnt(s) = [1.407]
bas 58, expnt(s) = [0.388]
bas 59, expnt(s) = [1.057]
bas 60, expnt(s) = [33.87   5.095  1.159]
bas 61, expnt(s) = [0.3258]
bas 62, expnt(s) = [0.1027]
bas 63, expnt(s) = [1.407]
bas 64, expnt(s) = [0.388]
bas 65, expnt(s) = [1.057]
bas 66, expnt(s) = [33.87   5.095  1.159]
bas 67, expnt(s) = [0.3258]
bas 68, expnt(s) = [0.1027]
bas 69, expnt(s) = [1.407]
bas 70, expnt(s) = [0.388]
bas 71, expnt(s) = [1.057]
bas 72, expnt(s) = [33.87   5.095  1.159]
bas 73, expnt(s) = [0.3258]
bas 74, expnt(s) = [0.1027]
bas 75, expnt(s) = [1.407]
bas 76, expnt(s) = [0.388]
bas 77, expnt(s) = [1.057]
bas 78, expnt(s) = [5.988e+03 8.989e+02 2.059e+02 5.924e+01 1.987e+01 7.406e+00 2.930e+00
 1.189e+00 4.798e-01]
bas 79, expnt(s) = [0.07509]
bas 80, expnt(s) = [0.02832]
bas 81, expnt(s) = [3.266  0.6511 0.1696]
bas 82, expnt(s) = [0.05578]
bas 83, expnt(s) = [0.0205]
bas 84, expnt(s) = [0.1874]
bas 85, expnt(s) = [0.0801]
bas 86, expnt(s) = [0.1829]
bas 87, expnt(s) = [5.988e+03 8.989e+02 2.059e+02 5.924e+01 1.987e+01 7.406e+00 2.930e+00
 1.189e+00 4.798e-01]
bas 88, expnt(s) = [0.07509]
bas 89, expnt(s) = [0.02832]
bas 90, expnt(s) = [3.266  0.6511 0.1696]
bas 91, expnt(s) = [0.05578]
bas 92, expnt(s) = [0.0205]
bas 93, expnt(s) = [0.1874]
bas 94, expnt(s) = [0.0801]
bas 95, expnt(s) = [0.1829]
bas 96, expnt(s) = [5.988e+03 8.989e+02 2.059e+02 5.924e+01 1.987e+01 7.406e+00 2.930e+00
 1.189e+00 4.798e-01]
bas 97, expnt(s) = [0.07509]
bas 98, expnt(s) = [0.02832]
bas 99, expnt(s) = [3.266  0.6511 0.1696]
bas 100, expnt(s) = [0.05578]
bas 101, expnt(s) = [0.0205]
bas 102, expnt(s) = [0.1874]
bas 103, expnt(s) = [0.0801]
bas 104, expnt(s) = [0.1829]
bas 105, expnt(s) = [5.988e+03 8.989e+02 2.059e+02 5.924e+01 1.987e+01 7.406e+00 2.930e+00
 1.189e+00 4.798e-01]
bas 106, expnt(s) = [0.07509]
bas 107, expnt(s) = [0.02832]
bas 108, expnt(s) = [3.266  0.6511 0.1696]
bas 109, expnt(s) = [0.05578]
bas 110, expnt(s) = [0.0205]
bas 111, expnt(s) = [0.1874]
bas 112, expnt(s) = [0.0801]
bas 113, expnt(s) = [0.1829]
bas 114, expnt(s) = [5.988e+03 8.989e+02 2.059e+02 5.924e+01 1.987e+01 7.406e+00 2.930e+00
 1.189e+00 4.798e-01]
bas 115, expnt(s) = [0.07509]
bas 116, expnt(s) = [0.02832]
bas 117, expnt(s) = [3.266  0.6511 0.1696]
bas 118, expnt(s) = [0.05578]
bas 119, expnt(s) = [0.0205]
bas 120, expnt(s) = [0.1874]
bas 121, expnt(s) = [0.0801]
bas 122, expnt(s) = [0.1829]
bas 123, expnt(s) = [5.988e+03 8.989e+02 2.059e+02 5.924e+01 1.987e+01 7.406e+00 2.930e+00
 1.189e+00 4.798e-01]
bas 124, expnt(s) = [0.07509]
bas 125, expnt(s) = [0.02832]
bas 126, expnt(s) = [3.266  0.6511 0.1696]
bas 127, expnt(s) = [0.05578]
bas 128, expnt(s) = [0.0205]
bas 129, expnt(s) = [0.1874]
bas 130, expnt(s) = [0.0801]
bas 131, expnt(s) = [0.1829]
bas 132, expnt(s) = [5.988e+03 8.989e+02 2.059e+02 5.924e+01 1.987e+01 7.406e+00 2.930e+00
 1.189e+00 4.798e-01]
bas 133, expnt(s) = [0.07509]
bas 134, expnt(s) = [0.02832]
bas 135, expnt(s) = [3.266  0.6511 0.1696]
bas 136, expnt(s) = [0.05578]
bas 137, expnt(s) = [0.0205]
bas 138, expnt(s) = [0.1874]
bas 139, expnt(s) = [0.0801]
bas 140, expnt(s) = [0.1829]
bas 141, expnt(s) = [5.988e+03 8.989e+02 2.059e+02 5.924e+01 1.987e+01 7.406e+00 2.930e+00
 1.189e+00 4.798e-01]
bas 142, expnt(s) = [0.07509]
bas 143, expnt(s) = [0.02832]
bas 144, expnt(s) = [3.266  0.6511 0.1696]
bas 145, expnt(s) = [0.05578]
bas 146, expnt(s) = [0.0205]
bas 147, expnt(s) = [0.1874]
bas 148, expnt(s) = [0.0801]
bas 149, expnt(s) = [0.1829]
bas 150, expnt(s) = [5.988e+03 8.989e+02 2.059e+02 5.924e+01 1.987e+01 7.406e+00 2.930e+00
 1.189e+00 4.798e-01]
bas 151, expnt(s) = [0.07509]
bas 152, expnt(s) = [0.02832]
bas 153, expnt(s) = [3.266  0.6511 0.1696]
bas 154, expnt(s) = [0.05578]
bas 155, expnt(s) = [0.0205]
bas 156, expnt(s) = [0.1874]
bas 157, expnt(s) = [0.0801]
bas 158, expnt(s) = [0.1829]
bas 159, expnt(s) = [5.988e+03 8.989e+02 2.059e+02 5.924e+01 1.987e+01 7.406e+00 2.930e+00
 1.189e+00 4.798e-01]
bas 160, expnt(s) = [0.07509]
bas 161, expnt(s) = [0.02832]
bas 162, expnt(s) = [3.266  0.6511 0.1696]
bas 163, expnt(s) = [0.05578]
bas 164, expnt(s) = [0.0205]
bas 165, expnt(s) = [0.1874]
bas 166, expnt(s) = [0.0801]
bas 167, expnt(s) = [0.1829]
bas 168, expnt(s) = [5.988e+03 8.989e+02 2.059e+02 5.924e+01 1.987e+01 7.406e+00 2.930e+00
 1.189e+00 4.798e-01]
bas 169, expnt(s) = [0.07509]
bas 170, expnt(s) = [0.02832]
bas 171, expnt(s) = [3.266  0.6511 0.1696]
bas 172, expnt(s) = [0.05578]
bas 173, expnt(s) = [0.0205]
bas 174, expnt(s) = [0.1874]
bas 175, expnt(s) = [0.0801]
bas 176, expnt(s) = [0.1829]
bas 177, expnt(s) = [5.988e+03 8.989e+02 2.059e+02 5.924e+01 1.987e+01 7.406e+00 2.930e+00
 1.189e+00 4.798e-01]
bas 178, expnt(s) = [0.07509]
bas 179, expnt(s) = [0.02832]
bas 180, expnt(s) = [3.266  0.6511 0.1696]
bas 181, expnt(s) = [0.05578]
bas 182, expnt(s) = [0.0205]
bas 183, expnt(s) = [0.1874]
bas 184, expnt(s) = [0.0801]
bas 185, expnt(s) = [0.1829]
bas 186, expnt(s) = [5.988e+03 8.989e+02 2.059e+02 5.924e+01 1.987e+01 7.406e+00 2.930e+00
 1.189e+00 4.798e-01]
bas 187, expnt(s) = [0.07509]
bas 188, expnt(s) = [0.02832]
bas 189, expnt(s) = [3.266  0.6511 0.1696]
bas 190, expnt(s) = [0.05578]
bas 191, expnt(s) = [0.0205]
bas 192, expnt(s) = [0.1874]
bas 193, expnt(s) = [0.0801]
bas 194, expnt(s) = [0.1829]
bas 195, expnt(s) = [5.988e+03 8.989e+02 2.059e+02 5.924e+01 1.987e+01 7.406e+00 2.930e+00
 1.189e+00 4.798e-01]
bas 196, expnt(s) = [0.07509]
bas 197, expnt(s) = [0.02832]
bas 198, expnt(s) = [3.266  0.6511 0.1696]
bas 199, expnt(s) = [0.05578]
bas 200, expnt(s) = [0.0205]
bas 201, expnt(s) = [0.1874]
bas 202, expnt(s) = [0.0801]
bas 203, expnt(s) = [0.1829]
bas 204, expnt(s) = [5.988e+03 8.989e+02 2.059e+02 5.924e+01 1.987e+01 7.406e+00 2.930e+00
 1.189e+00 4.798e-01]
bas 205, expnt(s) = [0.07509]
bas 206, expnt(s) = [0.02832]
bas 207, expnt(s) = [3.266  0.6511 0.1696]
bas 208, expnt(s) = [0.05578]
bas 209, expnt(s) = [0.0205]
bas 210, expnt(s) = [0.1874]
bas 211, expnt(s) = [0.0801]
bas 212, expnt(s) = [0.1829]
bas 213, expnt(s) = [5.988e+03 8.989e+02 2.059e+02 5.924e+01 1.987e+01 7.406e+00 2.930e+00
 1.189e+00 4.798e-01]
bas 214, expnt(s) = [0.07509]
bas 215, expnt(s) = [0.02832]
bas 216, expnt(s) = [3.266  0.6511 0.1696]
bas 217, expnt(s) = [0.05578]
bas 218, expnt(s) = [0.0205]
bas 219, expnt(s) = [0.1874]
bas 220, expnt(s) = [0.0801]
bas 221, expnt(s) = [0.1829]
bas 222, expnt(s) = [5.988e+03 8.989e+02 2.059e+02 5.924e+01 1.987e+01 7.406e+00 2.930e+00
 1.189e+00 4.798e-01]
bas 223, expnt(s) = [0.07509]
bas 224, expnt(s) = [0.02832]
bas 225, expnt(s) = [3.266  0.6511 0.1696]
bas 226, expnt(s) = [0.05578]
bas 227, expnt(s) = [0.0205]
bas 228, expnt(s) = [0.1874]
bas 229, expnt(s) = [0.0801]
bas 230, expnt(s) = [0.1829]
bas 231, expnt(s) = [5.988e+03 8.989e+02 2.059e+02 5.924e+01 1.987e+01 7.406e+00 2.930e+00
 1.189e+00 4.798e-01]
bas 232, expnt(s) = [0.07509]
bas 233, expnt(s) = [0.02832]
bas 234, expnt(s) = [3.266  0.6511 0.1696]
bas 235, expnt(s) = [0.05578]
bas 236, expnt(s) = [0.0205]
bas 237, expnt(s) = [0.1874]
bas 238, expnt(s) = [0.0801]
bas 239, expnt(s) = [0.1829]
bas 240, expnt(s) = [5.988e+03 8.989e+02 2.059e+02 5.924e+01 1.987e+01 7.406e+00 2.930e+00
 1.189e+00 4.798e-01]
bas 241, expnt(s) = [0.07509]
bas 242, expnt(s) = [0.02832]
bas 243, expnt(s) = [3.266  0.6511 0.1696]
bas 244, expnt(s) = [0.05578]
bas 245, expnt(s) = [0.0205]
bas 246, expnt(s) = [0.1874]
bas 247, expnt(s) = [0.0801]
bas 248, expnt(s) = [0.1829]
bas 249, expnt(s) = [5.988e+03 8.989e+02 2.059e+02 5.924e+01 1.987e+01 7.406e+00 2.930e+00
 1.189e+00 4.798e-01]
bas 250, expnt(s) = [0.07509]
bas 251, expnt(s) = [0.02832]
bas 252, expnt(s) = [3.266  0.6511 0.1696]
bas 253, expnt(s) = [0.05578]
bas 254, expnt(s) = [0.0205]
bas 255, expnt(s) = [0.1874]
bas 256, expnt(s) = [0.0801]
bas 257, expnt(s) = [0.1829]
bas 258, expnt(s) = [5.988e+03 8.989e+02 2.059e+02 5.924e+01 1.987e+01 7.406e+00 2.930e+00
 1.189e+00 4.798e-01]
bas 259, expnt(s) = [0.07509]
bas 260, expnt(s) = [0.02832]
bas 261, expnt(s) = [3.266  0.6511 0.1696]
bas 262, expnt(s) = [0.05578]
bas 263, expnt(s) = [0.0205]
bas 264, expnt(s) = [0.1874]
bas 265, expnt(s) = [0.0801]
bas 266, expnt(s) = [0.1829]
bas 267, expnt(s) = [5.988e+03 8.989e+02 2.059e+02 5.924e+01 1.987e+01 7.406e+00 2.930e+00
 1.189e+00 4.798e-01]
bas 268, expnt(s) = [0.07509]
bas 269, expnt(s) = [0.02832]
bas 270, expnt(s) = [3.266  0.6511 0.1696]
bas 271, expnt(s) = [0.05578]
bas 272, expnt(s) = [0.0205]
bas 273, expnt(s) = [0.1874]
bas 274, expnt(s) = [0.0801]
bas 275, expnt(s) = [0.1829]
bas 276, expnt(s) = [5.988e+03 8.989e+02 2.059e+02 5.924e+01 1.987e+01 7.406e+00 2.930e+00
 1.189e+00 4.798e-01]
bas 277, expnt(s) = [0.07509]
bas 278, expnt(s) = [0.02832]
bas 279, expnt(s) = [3.266  0.6511 0.1696]
bas 280, expnt(s) = [0.05578]
bas 281, expnt(s) = [0.0205]
bas 282, expnt(s) = [0.1874]
bas 283, expnt(s) = [0.0801]
bas 284, expnt(s) = [0.1829]
bas 285, expnt(s) = [5.988e+03 8.989e+02 2.059e+02 5.924e+01 1.987e+01 7.406e+00 2.930e+00
 1.189e+00 4.798e-01]
bas 286, expnt(s) = [0.07509]
bas 287, expnt(s) = [0.02832]
bas 288, expnt(s) = [3.266  0.6511 0.1696]
bas 289, expnt(s) = [0.05578]
bas 290, expnt(s) = [0.0205]
bas 291, expnt(s) = [0.1874]
bas 292, expnt(s) = [0.0801]
bas 293, expnt(s) = [0.1829]
bas 294, expnt(s) = [5.988e+03 8.989e+02 2.059e+02 5.924e+01 1.987e+01 7.406e+00 2.930e+00
 1.189e+00 4.798e-01]
bas 295, expnt(s) = [0.07509]
bas 296, expnt(s) = [0.02832]
bas 297, expnt(s) = [3.266  0.6511 0.1696]
bas 298, expnt(s) = [0.05578]
bas 299, expnt(s) = [0.0205]
bas 300, expnt(s) = [0.1874]
bas 301, expnt(s) = [0.0801]
bas 302, expnt(s) = [0.1829]
bas 303, expnt(s) = [5.988e+03 8.989e+02 2.059e+02 5.924e+01 1.987e+01 7.406e+00 2.930e+00
 1.189e+00 4.798e-01]
bas 304, expnt(s) = [0.07509]
bas 305, expnt(s) = [0.02832]
bas 306, expnt(s) = [3.266  0.6511 0.1696]
bas 307, expnt(s) = [0.05578]
bas 308, expnt(s) = [0.0205]
bas 309, expnt(s) = [0.1874]
bas 310, expnt(s) = [0.0801]
bas 311, expnt(s) = [0.1829]
bas 312, expnt(s) = [5.988e+03 8.989e+02 2.059e+02 5.924e+01 1.987e+01 7.406e+00 2.930e+00
 1.189e+00 4.798e-01]
bas 313, expnt(s) = [0.07509]
bas 314, expnt(s) = [0.02832]
bas 315, expnt(s) = [3.266  0.6511 0.1696]
bas 316, expnt(s) = [0.05578]
bas 317, expnt(s) = [0.0205]
bas 318, expnt(s) = [0.1874]
bas 319, expnt(s) = [0.0801]
bas 320, expnt(s) = [0.1829]
bas 321, expnt(s) = [5.988e+03 8.989e+02 2.059e+02 5.924e+01 1.987e+01 7.406e+00 2.930e+00
 1.189e+00 4.798e-01]
bas 322, expnt(s) = [0.07509]
bas 323, expnt(s) = [0.02832]
bas 324, expnt(s) = [3.266  0.6511 0.1696]
bas 325, expnt(s) = [0.05578]
bas 326, expnt(s) = [0.0205]
bas 327, expnt(s) = [0.1874]
bas 328, expnt(s) = [0.0801]
bas 329, expnt(s) = [0.1829]
bas 330, expnt(s) = [5.988e+03 8.989e+02 2.059e+02 5.924e+01 1.987e+01 7.406e+00 2.930e+00
 1.189e+00 4.798e-01]
bas 331, expnt(s) = [0.07509]
bas 332, expnt(s) = [0.02832]
bas 333, expnt(s) = [3.266  0.6511 0.1696]
bas 334, expnt(s) = [0.05578]
bas 335, expnt(s) = [0.0205]
bas 336, expnt(s) = [0.1874]
bas 337, expnt(s) = [0.0801]
bas 338, expnt(s) = [0.1829]
bas 339, expnt(s) = [5.988e+03 8.989e+02 2.059e+02 5.924e+01 1.987e+01 7.406e+00 2.930e+00
 1.189e+00 4.798e-01]
bas 340, expnt(s) = [0.07509]
bas 341, expnt(s) = [0.02832]
bas 342, expnt(s) = [3.266  0.6511 0.1696]
bas 343, expnt(s) = [0.05578]
bas 344, expnt(s) = [0.0205]
bas 345, expnt(s) = [0.1874]
bas 346, expnt(s) = [0.0801]
bas 347, expnt(s) = [0.1829]
bas 348, expnt(s) = [5.988e+03 8.989e+02 2.059e+02 5.924e+01 1.987e+01 7.406e+00 2.930e+00
 1.189e+00 4.798e-01]
bas 349, expnt(s) = [0.07509]
bas 350, expnt(s) = [0.02832]
bas 351, expnt(s) = [3.266  0.6511 0.1696]
bas 352, expnt(s) = [0.05578]
bas 353, expnt(s) = [0.0205]
bas 354, expnt(s) = [0.1874]
bas 355, expnt(s) = [0.0801]
bas 356, expnt(s) = [0.1829]
bas 357, expnt(s) = [5.988e+03 8.989e+02 2.059e+02 5.924e+01 1.987e+01 7.406e+00 2.930e+00
 1.189e+00 4.798e-01]
bas 358, expnt(s) = [0.07509]
bas 359, expnt(s) = [0.02832]
bas 360, expnt(s) = [3.266  0.6511 0.1696]
bas 361, expnt(s) = [0.05578]
bas 362, expnt(s) = [0.0205]
bas 363, expnt(s) = [0.1874]
bas 364, expnt(s) = [0.0801]
bas 365, expnt(s) = [0.1829]
CPU time:         0.92
arg.atm = [[  6  20   1  23   0   0]
 [  8  24   1  27   0   0]
 [  6  28   1  31   0   0]
 [  8  32   1  35   0   0]
 [  6  36   1  39   0   0]
 [  8  40   1  43   0   0]
 [  1  44   1  47   0   0]
 [  1  48   1  51   0   0]
 [  1  52   1  55   0   0]
 [  1  56   1  59   0   0]
 [  3  60   1  63   0   0]
 [  3  64   1  67   0   0]
 [  3  68   1  71   0   0]
 [  3  72   1  75   0   0]
 [  3  76   1  79   0   0]
 [  3  80   1  83   0   0]
 [  3  84   1  87   0   0]
 [  3  88   1  91   0   0]
 [  3  92   1  95   0   0]
 [  3  96   1  99   0   0]
 [  3 100   1 103   0   0]
 [  3 104   1 107   0   0]
 [  3 108   1 111   0   0]
 [  3 112   1 115   0   0]
 [  3 116   1 119   0   0]
 [  3 120   1 123   0   0]
 [  3 124   1 127   0   0]
 [  3 128   1 131   0   0]
 [  3 132   1 135   0   0]
 [  3 136   1 139   0   0]
 [  3 140   1 143   0   0]
 [  3 144   1 147   0   0]
 [  3 148   1 151   0   0]
 [  3 152   1 155   0   0]
 [  3 156   1 159   0   0]
 [  3 160   1 163   0   0]
 [  3 164   1 167   0   0]
 [  3 168   1 171   0   0]
 [  3 172   1 175   0   0]
 [  3 176   1 179   0   0]
 [  3 180   1 183   0   0]
 [  3 184   1 187   0   0]]
arg.bas = [[  0   0   8 ... 251 259   0]
 [  0   0   1 ... 275 276   0]
 [  0   0   1 ... 277 278   0]
 ...
 [ 41   2   1 ... 229 230   0]
 [ 41   2   1 ... 231 232   0]
 [ 41   3   1 ... 233 234   0]]
arg.env = [ 0.00000000e+00  0.00000000e+00  0.00000000e+00  0.00000000e+00
  0.00000000e+00  0.00000000e+00  0.00000000e+00  0.00000000e+00
  0.00000000e+00  0.00000000e+00  0.00000000e+00  0.00000000e+00
  0.00000000e+00  0.00000000e+00  0.00000000e+00  0.00000000e+00
  0.00000000e+00  0.00000000e+00  0.00000000e+00  0.00000000e+00
  9.24019383e+00  8.69207877e+00  1.93853964e+01  0.00000000e+00
  9.20328748e+00  8.02338028e+00  1.69179054e+01  0.00000000e+00
  1.00360331e+01  9.81468947e+00  1.55586821e+01  0.00000000e+00
  1.08957451e+01  1.15484943e+01  1.69739736e+01  0.00000000e+00
  1.09115621e+01  1.07758609e+01  1.94118904e+01  0.00000000e+00
  1.00150193e+01  9.85709492e+00  1.34415463e+01  0.00000000e+00
  9.84993286e+00  7.17778453e+00  2.04358385e+01  0.00000000e+00
  7.47029524e+00  9.20530949e+00  1.99330201e+01  0.00000000e+00
  1.03268241e+01  1.22452552e+01  2.05375057e+01  0.00000000e+00
  1.26928935e+01  1.02404070e+01  1.98977389e+01  0.00000000e+00
  9.94742383e+00  9.94742383e+00  9.94742383e+00  0.00000000e+00
  9.94742383e+00  3.31580794e+00  9.94742383e+00  0.00000000e+00
  1.65790397e+01  9.94742383e+00  9.94742383e+00  0.00000000e+00
  3.31580794e+00  9.94742383e+00  9.94742383e+00  0.00000000e+00
  9.94742383e+00  1.65790397e+01  9.94742383e+00  0.00000000e+00
  1.32632318e+01  6.63161589e+00  6.63161589e+00  0.00000000e+00
  6.63161589e+00  6.63161589e+00  6.63161589e+00  0.00000000e+00
  1.32632318e+01  1.32632318e+01  6.63161589e+00  0.00000000e+00
  6.63161589e+00  1.32632318e+01  6.63161589e+00  0.00000000e+00
  1.65790397e+01  3.31580794e+00  9.94742383e+00  0.00000000e+00
  3.31580794e+00  3.31580794e+00  9.94742383e+00  0.00000000e+00
  1.65790397e+01  1.65790397e+01  9.94742383e+00  0.00000000e+00
  3.31580794e+00  1.65790397e+01  9.94742383e+00  0.00000000e+00
  9.94742383e+00  9.94742383e+00  3.31580794e+00  0.00000000e+00
  9.94742383e+00  3.31580794e+00  3.31580794e+00  0.00000000e+00
  1.65790397e+01  9.94742383e+00  3.31580794e+00  0.00000000e+00
  3.31580794e+00  9.94742383e+00  3.31580794e+00  0.00000000e+00
  9.94742383e+00  1.65790397e+01  3.31580794e+00  0.00000000e+00
  1.32632318e+01  0.00000000e+00  6.63161589e+00  0.00000000e+00
  6.63161589e+00  0.00000000e+00  6.63161589e+00  0.00000000e+00
  0.00000000e+00  6.63161589e+00  6.63161589e+00  0.00000000e+00
  0.00000000e+00  1.32632318e+01  6.63161589e+00  0.00000000e+00
  1.65790397e+01  3.31580794e+00  3.31580794e+00  0.00000000e+00
  3.31580794e+00  3.31580794e+00  3.31580794e+00  0.00000000e+00
  1.65790397e+01  1.65790397e+01  3.31580794e+00  0.00000000e+00
  3.31580794e+00  1.65790397e+01  3.31580794e+00  0.00000000e+00
  1.32632318e+01  6.63161589e+00  0.00000000e+00  0.00000000e+00
  6.63161589e+00  6.63161589e+00  0.00000000e+00  0.00000000e+00
  1.32632318e+01  1.32632318e+01  0.00000000e+00  0.00000000e+00
  6.63161589e+00  1.32632318e+01  0.00000000e+00  0.00000000e+00
  0.00000000e+00  0.00000000e+00  6.63161589e+00  0.00000000e+00
  1.32632318e+01  0.00000000e+00  0.00000000e+00  0.00000000e+00
  5.98800000e+03  8.98900000e+02  2.05900000e+02  5.92400000e+01
  1.98700000e+01  7.40600000e+00  2.93000000e+00  1.18900000e+00
  4.79800000e-01  2.29069316e-01  4.25756548e-01  7.25056076e-01
  1.13074246e+00  1.57971158e+00  1.88304523e+00  1.78512072e+00
  1.13373211e+00  2.78411257e-01 -1.33552750e-01 -2.46934407e-01
 -4.16416863e-01 -6.63522613e-01 -9.24900580e-01 -1.17847379e+00
 -1.17034612e+00 -1.05567981e+00 -6.04251387e-01  7.50900000e-02
  3.62411193e-01  2.83200000e-02  1.74415453e-01  3.26600000e+00
  6.51100000e-01  1.69600000e-01  4.55280795e-01  3.34078737e-01
  2.74333054e-01  5.57800000e-02  7.90828897e-02  2.05000000e-02
  2.26295917e-02  1.87400000e-01  1.39275961e-01  8.01000000e-02
  3.14692425e-02  1.82900000e-01  4.31510332e-02  3.38700000e+01
  5.09500000e+00  1.15900000e+00  9.04334519e-01  1.63100455e+00
  2.40491525e+00  3.25800000e-01  1.08950276e+00  1.02700000e-01
  4.58345379e-01  1.40700000e+00  4.47045795e+00  3.88000000e-01
  8.93354953e-01  1.05700000e+00  2.87515071e+00  8.23600000e+03
  1.23500000e+03  2.80800000e+02  7.92700000e+01  2.55900000e+01
  8.99700000e+00  3.31900000e+00  3.64300000e-01  1.18480296e+00
  2.20874210e+00  3.73316324e+00  5.61216719e+00  6.89519583e+00
  5.82409515e+00  2.19663441e+00 -1.08712663e-02 -4.28969670e-01
 -8.03166571e-01 -1.36745981e+00 -2.11525239e+00 -2.78571299e+00
 -2.89453423e+00 -1.83934657e+00  1.23268730e+00  9.05900000e-01
  2.34598494e+00  1.28500000e-01  5.42241022e-01  1.87100000e+01
  4.13300000e+00  1.20000000e+00  4.47572721e+00  4.19627876e+00
  2.98800046e+00  3.82700000e-01  8.78127282e-01  1.20900000e-01
  2.07977938e-01  1.09700000e+00  3.06825171e+00  3.18000000e-01
  3.51379844e-01  7.61000000e-01  1.06690522e+00  1.53300000e+04
  2.29900000e+03  5.22400000e+02  1.47300000e+02  4.75500000e+01
  1.67600000e+01  6.20700000e+00  6.88200000e-01  1.81067529e+00
  3.37486577e+00  5.72265412e+00  8.66150357e+00  1.08070276e+01
  9.28179538e+00  3.56346173e+00 -1.59395830e-02 -6.86527364e-01
 -1.28759909e+00 -2.19507417e+00 -3.43047366e+00 -4.58719692e+00
 -4.89805685e+00 -2.99457591e+00  1.97563931e+00  1.75200000e+00
  3.84738459e+00  2.38400000e-01  8.61975084e-01  3.44600000e+01
  7.74900000e+00  2.28000000e+00  1.00262994e+01  9.72213774e+00
  6.55849668e+00  7.15600000e-01  1.92009319e+00  2.14000000e-01
  4.24621137e-01  2.31400000e+00  1.13283134e+01  6.45000000e-01
  1.21132000e+00  1.42800000e+00  4.39692268e+00]
ecpbas  = []


******** <class 'pyscf.scf.hf.RHF'> ********
method = RHF
initial guess = minao
damping factor = 0
level_shift factor = 0
DIIS = <class 'pyscf.scf.diis.CDIIS'>
diis_start_cycle = 1
diis_space = 8
SCF conv_tol = 1e-09
SCF conv_tol_grad = None
SCF max_cycles = 50
direct_scf = True
direct_scf_tol = 1e-13
chkfile to save SCF result = /burg/ccce/users/eav2136/projects/batteries/01_mp2/tmp/tmph72audsg
max_memory 700000 MB (current use 95 MB)
Set gradient conv threshold to 3.16228e-05
Nelec from initial guess = 141.99837780071093
    CPU time for vj and vk   5953.37 sec, wall time    186.83 sec
E1 = -2870.3944077820584  E_coul = 1234.9316961347895
init E= -584.285003789638
cond(S) = 38567462.4915522
    CPU time for initialize scf   5964.51 sec, wall time    187.86 sec
  HOMO = -0.102595606174238  LUMO = -0.09159296922201
  mo_energy =
[-2.08434631e+01 -2.07935953e+01 -2.07926018e+01 -1.13785405e+01
 -1.13528384e+01 -1.13477177e+01 -2.53437334e+00 -2.52437875e+00
 -2.52334434e+00 -2.52267846e+00 -2.52057858e+00 -2.51821026e+00
 -2.51409314e+00 -2.51336530e+00 -2.50745846e+00 -2.50566830e+00
 -2.50451442e+00 -2.50432748e+00 -2.50346922e+00 -2.50312352e+00
 -2.50237040e+00 -2.50204873e+00 -2.50185263e+00 -2.50144593e+00
 -2.50132947e+00 -2.50124524e+00 -2.50100036e+00 -2.50094283e+00
 -2.49971657e+00 -2.49686586e+00 -2.49458762e+00 -2.49395121e+00
 -2.49216479e+00 -2.49211722e+00 -2.49207348e+00 -2.49029054e+00
 -2.49013148e+00 -2.48738265e+00 -2.16877983e+00 -1.79612879e+00
 -1.65778855e+00 -1.33706284e+00 -1.05209254e+00 -9.01483039e-01
 -8.03091175e-01 -7.85828953e-01 -6.88670515e-01 -6.77000212e-01
 -6.45737944e-01 -6.21454252e-01 -5.69921120e-01 -5.00371106e-01
 -4.94828040e-01 -4.55642890e-01 -4.50890228e-01 -4.36835183e-01
 -4.04087397e-01 -3.32844374e-01 -3.24610108e-01 -3.13427337e-01
 -2.64199050e-01 -2.57053132e-01 -2.21812313e-01 -2.08139129e-01
 -1.78343074e-01 -1.73134004e-01 -1.35393566e-01 -1.30925630e-01
 -1.19739054e-01 -1.15820332e-01 -1.02595606e-01 -9.15929692e-02
 -8.34386722e-02 -6.70171657e-02 -6.54621157e-02 -5.75080453e-02
 -5.55778166e-02 -4.41316189e-02 -3.64116239e-02 -3.49464957e-02
 -3.30860067e-02 -2.33873287e-02 -1.75945393e-02 -1.53779107e-02
 -1.29847795e-02 -1.29438870e-02 -9.42071021e-03 -6.85714071e-04
  2.12001882e-03  5.16664916e-03  9.65490841e-03  1.45594022e-02
  1.71920552e-02  1.82259887e-02  1.96831221e-02  2.13423771e-02
  2.36236953e-02  2.61310461e-02  2.87804215e-02  3.07435084e-02
  3.29625645e-02  3.63562487e-02  3.86497645e-02  4.07856949e-02
  4.10720452e-02  4.23898012e-02  4.34480150e-02  4.59138409e-02
  4.70239455e-02  4.84792013e-02  4.86769368e-02  4.95865409e-02
  5.15941353e-02  5.19205751e-02  5.39218465e-02  5.58563983e-02
  5.68086596e-02  5.91873246e-02  5.98552159e-02  6.22748766e-02
  6.23318550e-02  6.35989815e-02  6.44100719e-02  6.59216757e-02
  6.63777457e-02  6.74249137e-02  6.87021234e-02  7.06787231e-02
  7.10115594e-02  7.26626235e-02  7.37300195e-02  7.48390531e-02
  7.57942253e-02  7.59175762e-02  7.74810891e-02  7.92154295e-02
  8.06235612e-02  8.06702685e-02  8.16832239e-02  8.25576851e-02
  8.30764518e-02  8.48583621e-02  8.73012209e-02  8.84248967e-02
  8.95628889e-02  9.08771030e-02  9.23171952e-02  9.32258253e-02
  9.36167783e-02  9.44827036e-02  9.62022433e-02  9.68644150e-02
  9.76096038e-02  1.01727576e-01  1.02655515e-01  1.03542941e-01
  1.05219839e-01  1.07177219e-01  1.08194421e-01  1.08370029e-01
  1.10567480e-01  1.10832897e-01  1.12254661e-01  1.12724202e-01
  1.14135634e-01  1.14519921e-01  1.15594231e-01  1.17054436e-01
  1.17469193e-01  1.17673459e-01  1.18214510e-01  1.19066687e-01
  1.20195353e-01  1.20957609e-01  1.22543182e-01  1.24379395e-01
  1.24964413e-01  1.26512909e-01  1.27386524e-01  1.29535633e-01
  1.31008130e-01  1.31954366e-01  1.33148015e-01  1.33618806e-01
  1.34631466e-01  1.35463957e-01  1.37262161e-01  1.37794016e-01
  1.40206026e-01  1.40481441e-01  1.41482010e-01  1.42311546e-01
  1.43198764e-01  1.44116624e-01  1.44784536e-01  1.47126081e-01
  1.47234067e-01  1.49231427e-01  1.50055875e-01  1.50573577e-01
  1.51759464e-01  1.52324769e-01  1.54216740e-01  1.55339533e-01
  1.56651778e-01  1.58278278e-01  1.59226672e-01  1.61261331e-01
  1.61732083e-01  1.63816623e-01  1.64641275e-01  1.65978707e-01
  1.66362725e-01  1.66929124e-01  1.68363153e-01  1.70492942e-01
  1.71936828e-01  1.72879238e-01  1.73528908e-01  1.74426236e-01
  1.75246525e-01  1.76135385e-01  1.77089916e-01  1.79314401e-01
  1.82066791e-01  1.82709713e-01  1.85039513e-01  1.85880336e-01
  1.88435704e-01  1.89628497e-01  1.91604203e-01  1.93155443e-01
  1.93372191e-01  1.93869851e-01  1.95058860e-01  1.96413838e-01
  1.96868424e-01  1.99938770e-01  2.00557777e-01  2.01859049e-01
  2.02035244e-01  2.02739671e-01  2.03803866e-01  2.06273439e-01
  2.07186997e-01  2.07661009e-01  2.08950317e-01  2.09647556e-01
  2.11324564e-01  2.11927020e-01  2.12993236e-01  2.14540867e-01
  2.14947891e-01  2.17108878e-01  2.18028244e-01  2.18199804e-01
  2.19784678e-01  2.22757541e-01  2.24630852e-01  2.25732562e-01
  2.26575229e-01  2.27020804e-01  2.28986507e-01  2.30174548e-01
  2.32677674e-01  2.33784672e-01  2.36417403e-01  2.37797980e-01
  2.40058504e-01  2.42308139e-01  2.43371310e-01  2.44692142e-01
  2.47015358e-01  2.48401506e-01  2.50566129e-01  2.51960538e-01
  2.53088148e-01  2.54677649e-01  2.60407652e-01  2.61264582e-01
  2.61444493e-01  2.63524025e-01  2.66115375e-01  2.67946094e-01
  2.70824323e-01  2.72191482e-01  2.73188455e-01  2.74214959e-01
  2.75273659e-01  2.75801097e-01  2.77927917e-01  2.81507959e-01
  2.82537414e-01  2.83068125e-01  2.83829534e-01  2.86157426e-01
  2.87567674e-01  2.88207149e-01  2.89793916e-01  2.91563553e-01
  2.94425810e-01  2.96058346e-01  2.96575661e-01  2.97922783e-01
  3.00054337e-01  3.01794608e-01  3.03924163e-01  3.04309215e-01
  3.06761739e-01  3.08625129e-01  3.10460781e-01  3.11881037e-01
  3.13659017e-01  3.14060734e-01  3.16634089e-01  3.20877374e-01
  3.22043803e-01  3.23282967e-01  3.25550949e-01  3.26569493e-01
  3.28745628e-01  3.29713894e-01  3.31928726e-01  3.33754864e-01
  3.37133479e-01  3.38201743e-01  3.40544492e-01  3.43226877e-01
  3.44403605e-01  3.47130777e-01  3.48342027e-01  3.49431520e-01
  3.50767878e-01  3.52418217e-01  3.53624831e-01  3.55509918e-01
  3.57079951e-01  3.57451202e-01  3.60452531e-01  3.61955339e-01
  3.63927608e-01  3.64205208e-01  3.66514899e-01  3.67990511e-01
  3.69554223e-01  3.71917937e-01  3.73285112e-01  3.74263760e-01
  3.75455091e-01  3.76608602e-01  3.77676045e-01  3.79229942e-01
  3.81656679e-01  3.82077078e-01  3.83872673e-01  3.85422468e-01
  3.86508548e-01  3.87767069e-01  3.90550237e-01  3.92111085e-01
  3.95396247e-01  3.95800217e-01  3.97812131e-01  4.00421079e-01
  4.02254958e-01  4.02738488e-01  4.03958918e-01  4.06045246e-01
  4.07256365e-01  4.08850466e-01  4.09037167e-01  4.11790281e-01
  4.12822304e-01  4.14882194e-01  4.15463288e-01  4.17376875e-01
  4.18650296e-01  4.19779457e-01  4.21540046e-01  4.22735563e-01
  4.23707706e-01  4.24133174e-01  4.25840059e-01  4.27224445e-01
  4.28418686e-01  4.29576725e-01  4.30816813e-01  4.31930955e-01
  4.33532483e-01  4.33788555e-01  4.35254301e-01  4.37055257e-01
  4.38478295e-01  4.39163211e-01  4.41952696e-01  4.42537751e-01
  4.43217339e-01  4.45432184e-01  4.47168653e-01  4.48539441e-01
  4.49667302e-01  4.50602578e-01  4.50873742e-01  4.53655237e-01
  4.56007247e-01  4.56643959e-01  4.57730856e-01  4.58738654e-01
  4.61045515e-01  4.61836415e-01  4.62351142e-01  4.64486599e-01
  4.66696224e-01  4.66860993e-01  4.68640226e-01  4.70106082e-01
  4.70999476e-01  4.73229025e-01  4.74724407e-01  4.76553529e-01
  4.77347445e-01  4.80549073e-01  4.81139183e-01  4.83336988e-01
  4.84557583e-01  4.86348307e-01  4.86642483e-01  4.87658012e-01
  4.89972422e-01  4.91502599e-01  4.92492686e-01  4.93666943e-01
  4.95259262e-01  4.96266382e-01  4.97147334e-01  4.97971644e-01
  5.01746865e-01  5.04091981e-01  5.05017871e-01  5.05689828e-01
  5.06964745e-01  5.08625269e-01  5.09801824e-01  5.11686337e-01
  5.12415852e-01  5.14930392e-01  5.15757060e-01  5.16395297e-01
  5.19455535e-01  5.19508576e-01  5.19959066e-01  5.22925703e-01
  5.24897777e-01  5.26241580e-01  5.27469965e-01  5.29621017e-01
  5.31487196e-01  5.32898065e-01  5.35509023e-01  5.36860951e-01
  5.38154190e-01  5.40003127e-01  5.41754198e-01  5.44797804e-01
  5.45560316e-01  5.46770659e-01  5.50408362e-01  5.52030713e-01
  5.54551849e-01  5.55397588e-01  5.57099933e-01  5.60103161e-01
  5.61010835e-01  5.61902965e-01  5.62963931e-01  5.64309378e-01
  5.66138336e-01  5.66989011e-01  5.70254174e-01  5.72920794e-01
  5.75458935e-01  5.76573127e-01  5.80555731e-01  5.81638487e-01
  5.82976467e-01  5.84316377e-01  5.86449399e-01  5.87510510e-01
  5.88865070e-01  5.92806635e-01  5.93816211e-01  5.95067157e-01
  6.00421035e-01  6.01180232e-01  6.02413847e-01  6.03735938e-01
  6.05970677e-01  6.08840394e-01  6.10303552e-01  6.11933202e-01
  6.13803720e-01  6.14697888e-01  6.18553248e-01  6.19396113e-01
  6.20666160e-01  6.21055895e-01  6.24478927e-01  6.25067915e-01
  6.26088009e-01  6.28298908e-01  6.29673679e-01  6.32636621e-01
  6.34575343e-01  6.35289033e-01  6.36427397e-01  6.37590409e-01
  6.39327070e-01  6.40750078e-01  6.42217346e-01  6.46135732e-01
  6.47177034e-01  6.49922377e-01  6.51382308e-01  6.52520904e-01
  6.53868564e-01  6.57427165e-01  6.58324507e-01  6.60176530e-01
  6.61463580e-01  6.62908002e-01  6.63874362e-01  6.64901766e-01
  6.65673275e-01  6.69080487e-01  6.70692521e-01  6.72180526e-01
  6.74539996e-01  6.75112611e-01  6.78117168e-01  6.79266814e-01
  6.82111392e-01  6.82774649e-01  6.84132056e-01  6.85701514e-01
  6.86598046e-01  6.88941868e-01  6.90227853e-01  6.91287150e-01
  6.95517416e-01  6.96435021e-01  6.98587523e-01  6.99662673e-01
  7.00738952e-01  7.01280122e-01  7.05081241e-01  7.06708605e-01
  7.08485988e-01  7.09380263e-01  7.10274926e-01  7.12972085e-01
  7.16350049e-01  7.16633005e-01  7.19312897e-01  7.21661061e-01
  7.22707131e-01  7.22988387e-01  7.28164379e-01  7.30082117e-01
  7.30425563e-01  7.31866889e-01  7.35421268e-01  7.39873708e-01
  7.40640694e-01  7.42115704e-01  7.42990005e-01  7.44359965e-01
  7.48424899e-01  7.49616288e-01  7.50526809e-01  7.50882141e-01
  7.52680534e-01  7.55004426e-01  7.55023755e-01  7.56768208e-01
  7.58621786e-01  7.60424458e-01  7.62156285e-01  7.65015035e-01
  7.66896118e-01  7.68605586e-01  7.69699960e-01  7.72804696e-01
  7.73294628e-01  7.75621249e-01  7.77053610e-01  7.79210127e-01
  7.79882317e-01  7.80840281e-01  7.83640221e-01  7.86211221e-01
  7.87635674e-01  7.89550756e-01  7.91414676e-01  7.93017790e-01
  7.94798727e-01  7.97841869e-01  7.99246660e-01  8.00639168e-01
  8.03053697e-01  8.05625754e-01  8.06461770e-01  8.07407314e-01
  8.11925369e-01  8.12173354e-01  8.15225619e-01  8.16157899e-01
  8.18478828e-01  8.20020880e-01  8.21904586e-01  8.23368571e-01
  8.24741282e-01  8.27252990e-01  8.29414788e-01  8.30851844e-01
  8.33012054e-01  8.34195576e-01  8.37979916e-01  8.39038639e-01
  8.42308099e-01  8.42623226e-01  8.45175953e-01  8.45590266e-01
  8.46829523e-01  8.49507026e-01  8.50473004e-01  8.51002994e-01
  8.53946762e-01  8.55880962e-01  8.57762324e-01  8.61147306e-01
  8.62160009e-01  8.64058678e-01  8.64783081e-01  8.66344790e-01
  8.69630450e-01  8.70542503e-01  8.73031663e-01  8.73477771e-01
  8.76696254e-01  8.78406522e-01  8.80278492e-01  8.80544920e-01
  8.82993778e-01  8.85035891e-01  8.86391965e-01  8.87728831e-01
  8.89269304e-01  8.90556630e-01  8.92339309e-01  8.92769166e-01
  8.93511219e-01  8.95818677e-01  8.96731252e-01  9.00238932e-01
  9.02134237e-01  9.03617604e-01  9.06893367e-01  9.07675440e-01
  9.09327850e-01  9.10733786e-01  9.12461440e-01  9.13001534e-01
  9.16155813e-01  9.16672365e-01  9.17842160e-01  9.18748544e-01
  9.19979458e-01  9.22600345e-01  9.25463835e-01  9.27808545e-01
  9.28641660e-01  9.32246234e-01  9.34000392e-01  9.35906096e-01
  9.38123938e-01  9.40836885e-01  9.42534058e-01  9.43973012e-01
  9.45439151e-01  9.46257862e-01  9.48796388e-01  9.49739261e-01
  9.51078630e-01  9.52484975e-01  9.55278209e-01  9.55949662e-01
  9.58520564e-01  9.60647919e-01  9.62169804e-01  9.63297936e-01
  9.63947222e-01  9.65967203e-01  9.68878326e-01  9.69093965e-01
  9.70639179e-01  9.73625385e-01  9.75700581e-01  9.76353829e-01
  9.78181627e-01  9.79726662e-01  9.80507509e-01  9.81718074e-01
  9.83589393e-01  9.85141893e-01  9.86624260e-01  9.88421215e-01
  9.89685430e-01  9.91292509e-01  9.91982313e-01  9.92875847e-01
  9.95597107e-01  9.99355673e-01  1.00035085e+00  1.00134417e+00
  1.00211703e+00  1.00653965e+00  1.00804414e+00  1.00885556e+00
  1.00918180e+00  1.01316571e+00  1.01358415e+00  1.01514832e+00
  1.01583480e+00  1.01829776e+00  1.02050234e+00  1.02098850e+00
  1.02166262e+00  1.02320075e+00  1.02467079e+00  1.02664013e+00
  1.02799413e+00  1.03020184e+00  1.03125008e+00  1.03355751e+00
  1.03560303e+00  1.03680358e+00  1.03768042e+00  1.03887832e+00
  1.04017080e+00  1.04166484e+00  1.04449096e+00  1.04543015e+00
  1.04669453e+00  1.04893875e+00  1.05086137e+00  1.05167727e+00
  1.05479962e+00  1.05640632e+00  1.05732882e+00  1.05939983e+00
  1.06034706e+00  1.06295068e+00  1.06400380e+00  1.06660824e+00
  1.07034859e+00  1.07171256e+00  1.07275173e+00  1.07411137e+00
  1.07561224e+00  1.07772499e+00  1.07980297e+00  1.08070383e+00
  1.08245941e+00  1.08343580e+00  1.08615215e+00  1.08921595e+00
  1.09022408e+00  1.09248133e+00  1.09563663e+00  1.09907470e+00
  1.10247818e+00  1.10405126e+00  1.10602267e+00  1.10643496e+00
  1.10908426e+00  1.11072578e+00  1.11171653e+00  1.11652615e+00
  1.11765515e+00  1.11898822e+00  1.11999201e+00  1.12100709e+00
  1.12409646e+00  1.12449655e+00  1.12696740e+00  1.12821964e+00
  1.13092453e+00  1.13334800e+00  1.13528361e+00  1.13672932e+00
  1.13771489e+00  1.14009911e+00  1.14157537e+00  1.14351994e+00
  1.14391607e+00  1.14583870e+00  1.14819494e+00  1.15076388e+00
  1.15143235e+00  1.15455433e+00  1.15663529e+00  1.15755734e+00
  1.16009888e+00  1.16143590e+00  1.16425383e+00  1.16527785e+00
  1.16656586e+00  1.16842482e+00  1.16922243e+00  1.17107819e+00
  1.17301674e+00  1.17734615e+00  1.17822728e+00  1.17939775e+00
  1.18001025e+00  1.18119986e+00  1.18335991e+00  1.18645002e+00
  1.18654179e+00  1.19118671e+00  1.19322015e+00  1.19482970e+00
  1.19569360e+00  1.19614000e+00  1.19934585e+00  1.20070138e+00
  1.20214246e+00  1.20322224e+00  1.20414129e+00  1.20832996e+00
  1.20995202e+00  1.21111586e+00  1.21436624e+00  1.21634797e+00
  1.21801063e+00  1.22086159e+00  1.22215645e+00  1.22288119e+00
  1.22478552e+00  1.22811853e+00  1.22959943e+00  1.23091826e+00
  1.23406786e+00  1.23656262e+00  1.23766166e+00  1.23885762e+00
  1.23917715e+00  1.24153025e+00  1.24475309e+00  1.24599184e+00
  1.24703645e+00  1.24951101e+00  1.25161422e+00  1.25256212e+00
  1.25388999e+00  1.25554509e+00  1.25716624e+00  1.26025840e+00
  1.26266482e+00  1.26407388e+00  1.26608066e+00  1.26786535e+00
  1.26862792e+00  1.27082547e+00  1.27315182e+00  1.27377176e+00
  1.27516102e+00  1.27592235e+00  1.27708106e+00  1.28028529e+00
  1.28287762e+00  1.28470584e+00  1.28710819e+00  1.28827773e+00
  1.29042632e+00  1.29181793e+00  1.29476066e+00  1.29682307e+00
  1.29910352e+00  1.30004256e+00  1.30174757e+00  1.30270678e+00
  1.30529829e+00  1.30793390e+00  1.31035339e+00  1.31317785e+00
  1.31507247e+00  1.31758478e+00  1.31867921e+00  1.32016664e+00
  1.32212486e+00  1.32407595e+00  1.32853822e+00  1.32938084e+00
  1.33004053e+00  1.33416544e+00  1.33564799e+00  1.34081595e+00
  1.34184725e+00  1.34482526e+00  1.34646704e+00  1.34837801e+00
  1.35144181e+00  1.35376396e+00  1.35828196e+00  1.35872872e+00
  1.36110996e+00  1.36243001e+00  1.36341647e+00  1.36534495e+00
  1.36742856e+00  1.37178185e+00  1.37502340e+00  1.37594210e+00
  1.37913963e+00  1.38188947e+00  1.38519380e+00  1.38828049e+00
  1.39029815e+00  1.39360033e+00  1.39711607e+00  1.40119321e+00
  1.40203425e+00  1.40641435e+00  1.40842497e+00  1.41099304e+00
  1.41233759e+00  1.41479522e+00  1.41642751e+00  1.42414604e+00
  1.42509756e+00  1.42893740e+00  1.43216658e+00  1.43502348e+00
  1.43793357e+00  1.43956981e+00  1.44297006e+00  1.44539929e+00
  1.44778966e+00  1.45079219e+00  1.45369623e+00  1.45497555e+00
  1.45832782e+00  1.46071106e+00  1.46356733e+00  1.46991548e+00
  1.47303094e+00  1.47553816e+00  1.47905226e+00  1.48210880e+00
  1.48397773e+00  1.48563512e+00  1.49220190e+00  1.49473655e+00
  1.49748229e+00  1.50383793e+00  1.50436176e+00  1.51173610e+00
  1.51409372e+00  1.51485868e+00  1.52161993e+00  1.52582403e+00
  1.53265204e+00  1.53488575e+00  1.53763137e+00  1.54065473e+00
  1.54839642e+00  1.54942400e+00  1.55498814e+00  1.56254800e+00
  1.56511682e+00  1.57079100e+00  1.57441445e+00  1.58347659e+00
  1.58468544e+00  1.59239905e+00  1.59433461e+00  1.59969516e+00
  1.60006100e+00  1.60442506e+00  1.61014535e+00  1.61303901e+00
  1.61977921e+00  1.63147840e+00  1.63553812e+00  1.64334213e+00
  1.65070245e+00  1.66470468e+00  1.66794579e+00  1.67149750e+00
  1.67708767e+00  1.68638820e+00  1.69563134e+00  1.71025562e+00
  1.72500145e+00  1.74206725e+00  1.76166322e+00  1.77030854e+00
  1.78808641e+00  1.80782561e+00  1.83887028e+00  1.84774574e+00
  1.85964725e+00  1.90395535e+00  1.91465665e+00  1.94199855e+00
  1.97004512e+00  2.02073828e+00  2.07132916e+00  2.07349035e+00
  2.15753397e+00  2.23803944e+00  2.28597905e+00  2.34464714e+00
  2.40800579e+00  2.42410702e+00  2.46984799e+00  2.50102089e+00
  2.51358634e+00  2.58472263e+00  2.63578880e+00  2.70542429e+00
  2.72194643e+00  2.72711623e+00  2.76798291e+00  2.82988719e+00
  2.85587170e+00  2.86870214e+00  2.88689214e+00  2.89811119e+00
  2.97893444e+00  3.01858219e+00  3.07894100e+00  3.11457373e+00
  3.13778611e+00  3.15454396e+00  3.18791946e+00  3.20624338e+00
  3.21706458e+00  3.24370910e+00  3.29981992e+00  3.30950455e+00
  3.32670158e+00  3.33155837e+00  3.34216689e+00  3.35609982e+00
  3.36301627e+00  3.36656922e+00  3.40670980e+00  3.41263492e+00
  3.41830247e+00  3.42505635e+00  3.45246931e+00  3.47606973e+00
  3.47907293e+00  3.49176685e+00  3.49861624e+00  3.52251291e+00
  3.52641932e+00  3.53702338e+00  3.54080514e+00  3.54601285e+00
  3.56165922e+00  3.56447582e+00  3.58415376e+00  3.59605642e+00
  3.60809861e+00  3.62138208e+00  3.62331499e+00  3.62872995e+00
  3.66188638e+00  3.67952617e+00  3.68262358e+00  3.68433435e+00
  3.69260880e+00  3.69393555e+00  3.71083909e+00  3.72543096e+00
  3.73275554e+00  3.76653652e+00  3.77787132e+00  3.78610199e+00
  3.80633062e+00  3.85815090e+00  3.87325492e+00  3.89594860e+00
  3.91105516e+00  3.93588557e+00  3.96082992e+00  3.98517008e+00
  4.02897543e+00  4.04140546e+00  4.04540999e+00  4.05210296e+00
  4.06839136e+00  4.07523050e+00  4.09879461e+00  4.13198986e+00
  4.14108822e+00  4.16113555e+00  4.22263661e+00  4.25919082e+00
  4.28293638e+00  4.29819280e+00  4.29965668e+00  4.30792836e+00
  4.39650567e+00  4.40000458e+00  4.43482791e+00  4.44596306e+00
  4.51380751e+00  4.53526990e+00  4.53854270e+00  4.56911624e+00
  4.62381757e+00  4.65589632e+00  4.67375771e+00  4.69026653e+00
  4.71287700e+00  4.78926038e+00  4.82750550e+00  4.94317231e+00
  5.01356795e+00  5.03767822e+00  5.07434049e+00  5.13045497e+00
  5.13515419e+00  5.29946041e+00  5.31403085e+00  5.38114670e+00
  5.43273405e+00  5.43632905e+00  5.44824759e+00  5.48066411e+00
  5.51913290e+00  5.52037007e+00  5.58292342e+00  5.65603123e+00
  5.72933619e+00  5.74526567e+00  5.82639608e+00  5.84145148e+00
  5.95368070e+00  5.95752364e+00  6.03076186e+00  6.06003314e+00
  6.10378631e+00  6.11844319e+00  6.15325843e+00  6.16987536e+00
  6.26155261e+00  6.35174585e+00  6.41994706e+00  6.42996414e+00
  6.44367495e+00  6.54399631e+00  6.60546983e+00  6.64652137e+00
  6.69827023e+00  6.78598088e+00  6.83212148e+00  6.87889315e+00
  6.88168715e+00  6.95704820e+00  7.02237208e+00  7.12767766e+00
  7.15482496e+00  7.23161252e+00  7.26556615e+00  7.29422527e+00
  7.32047794e+00  7.37066511e+00  7.43661416e+00  7.45519018e+00
  7.64301943e+00  7.69565681e+00  7.83013325e+00  7.91488701e+00
  8.03500190e+00  8.37755524e+00  1.13034554e+01  1.31351917e+01
  1.33505289e+01  1.41290783e+01  1.59589727e+01  1.75749067e+01]
    CPU time for vj and vk   6232.05 sec, wall time    195.39 sec
E1 = -2883.5888235909624  E_coul = 1253.8234050930857
cycle= 1 E= -578.587710640246  delta_E=  5.7  |g|= 1.05  |ddm|= 18.1
    CPU time for cycle= 1   6235.38 sec, wall time    195.91 sec
diis-norm(errvec)=5.27261
diis-c [-27.8004595   1.       ]
  HOMO = -0.0459798958594808  LUMO = 0.00450565595101374
  mo_energy =
[-2.06052774e+01 -2.06002536e+01 -2.02500713e+01 -1.16745996e+01
 -1.14495762e+01 -1.14474647e+01 -2.50384593e+00 -2.45737639e+00
 -2.45532318e+00 -2.45243756e+00 -2.43368085e+00 -2.41720176e+00
 -2.41536046e+00 -2.40959309e+00 -2.40642287e+00 -2.40497591e+00
 -2.39626763e+00 -2.37602756e+00 -2.37596892e+00 -2.37211117e+00
 -2.37018394e+00 -2.36814462e+00 -2.36684962e+00 -2.36327154e+00
 -2.35335355e+00 -2.35120302e+00 -2.34156979e+00 -2.33046904e+00
 -2.32120095e+00 -2.31767304e+00 -2.31407914e+00 -2.26864546e+00
 -2.25521109e+00 -2.24527276e+00 -2.21851046e+00 -2.20785831e+00
 -2.20199631e+00 -2.18101040e+00 -1.69033073e+00 -1.50668900e+00
 -1.42500337e+00 -1.20092423e+00 -1.03537422e+00 -9.31550093e-01
 -8.75620481e-01 -8.15376834e-01 -7.84438842e-01 -7.16938950e-01
 -7.03279962e-01 -6.33918853e-01 -6.15921785e-01 -5.91057744e-01
 -5.33767330e-01 -4.59339330e-01 -4.16934673e-01 -2.45343364e-01
 -2.25031723e-01 -2.12537813e-01 -1.90622450e-01 -1.62867657e-01
 -1.50340210e-01 -1.31692575e-01 -1.26630884e-01 -1.17599995e-01
 -1.08023388e-01 -1.00541062e-01 -8.77538815e-02 -6.18657392e-02
 -5.59983241e-02 -5.06248237e-02 -4.59798959e-02  4.50565595e-03
  1.16531564e-02  1.42354367e-02  1.53986147e-02  1.57387459e-02
  2.12580273e-02  2.45031695e-02  2.55660425e-02  2.76432286e-02
  2.82173014e-02  3.21202886e-02  3.27996703e-02  3.61828831e-02
  3.77621831e-02  4.15649131e-02  4.39759436e-02  4.64577705e-02
  4.75188267e-02  4.88842227e-02  4.97452056e-02  5.22651147e-02
  5.28408720e-02  5.49355105e-02  5.60702176e-02  5.79834554e-02
  5.82280616e-02  6.07720298e-02  6.09951762e-02  6.38882605e-02
  6.42279109e-02  6.61046854e-02  6.75665682e-02  6.91379411e-02
  7.01874104e-02  7.12437671e-02  7.25885773e-02  7.35105339e-02
  7.49833770e-02  7.52065124e-02  7.70301297e-02  7.88897968e-02
  8.11285575e-02  8.22281307e-02  8.31158755e-02  8.40162081e-02
  8.50730775e-02  8.63894427e-02  8.69395355e-02  8.81807729e-02
  9.02546616e-02  9.03642702e-02  9.14912913e-02  9.32532429e-02
  9.44560780e-02  9.47974734e-02  9.55453566e-02  9.75871102e-02
  9.81371019e-02  9.97710458e-02  1.00826684e-01  1.03098586e-01
  1.04281720e-01  1.05365003e-01  1.06057584e-01  1.08941332e-01
  1.10273172e-01  1.10707658e-01  1.12738590e-01  1.14125930e-01
  1.15012271e-01  1.15874457e-01  1.16522181e-01  1.17771466e-01
  1.18576879e-01  1.20219489e-01  1.21883498e-01  1.22523386e-01
  1.23666973e-01  1.24360234e-01  1.25168031e-01  1.26733186e-01
  1.28478165e-01  1.29633144e-01  1.31749792e-01  1.32328413e-01
  1.32909726e-01  1.34371056e-01  1.35584779e-01  1.37886805e-01
  1.39596909e-01  1.40943502e-01  1.41445346e-01  1.41919102e-01
  1.43889410e-01  1.45241710e-01  1.46561792e-01  1.47448587e-01
  1.48814475e-01  1.50018754e-01  1.50670108e-01  1.52468778e-01
  1.54236025e-01  1.55166052e-01  1.56753105e-01  1.57191945e-01
  1.57963189e-01  1.58524927e-01  1.59056564e-01  1.62110834e-01
  1.64910080e-01  1.66714998e-01  1.67499260e-01  1.68249222e-01
  1.70514231e-01  1.73297120e-01  1.74822680e-01  1.75074032e-01
  1.77298610e-01  1.78512200e-01  1.80340859e-01  1.81755819e-01
  1.83147265e-01  1.83888736e-01  1.84625523e-01  1.86279011e-01
  1.87420135e-01  1.89211819e-01  1.90216376e-01  1.92541418e-01
  1.92750333e-01  1.95399909e-01  1.96598311e-01  1.98130457e-01
  1.99559015e-01  2.00610199e-01  2.01947160e-01  2.03751533e-01
  2.04779388e-01  2.06336802e-01  2.07763066e-01  2.09339312e-01
  2.09886156e-01  2.11426482e-01  2.15004867e-01  2.17123625e-01
  2.17681998e-01  2.18354248e-01  2.21214786e-01  2.21608998e-01
  2.23316269e-01  2.24856036e-01  2.27497965e-01  2.28938858e-01
  2.30158324e-01  2.31016948e-01  2.32662258e-01  2.34441866e-01
  2.36556130e-01  2.39726485e-01  2.40379538e-01  2.41673079e-01
  2.42705233e-01  2.43229267e-01  2.44750472e-01  2.46300117e-01
  2.46837999e-01  2.48002888e-01  2.49131025e-01  2.51639704e-01
  2.53041826e-01  2.54865896e-01  2.56620049e-01  2.56955598e-01
  2.58138713e-01  2.59657441e-01  2.62323985e-01  2.65024903e-01
  2.65468634e-01  2.67647179e-01  2.69917581e-01  2.73515303e-01
  2.75461878e-01  2.77540673e-01  2.78066703e-01  2.81090026e-01
  2.81839877e-01  2.85569959e-01  2.87252287e-01  2.87961448e-01
  2.89546947e-01  2.93571740e-01  2.94206732e-01  2.95266038e-01
  2.95969755e-01  2.96912705e-01  2.99760334e-01  3.02406963e-01
  3.04045344e-01  3.05920600e-01  3.07033356e-01  3.08377807e-01
  3.09944041e-01  3.10947439e-01  3.14982555e-01  3.15949263e-01
  3.17036436e-01  3.19494970e-01  3.22317267e-01  3.24162370e-01
  3.26795238e-01  3.27782341e-01  3.29101929e-01  3.31319516e-01
  3.34819148e-01  3.35952835e-01  3.40226975e-01  3.41739403e-01
  3.42931623e-01  3.45168546e-01  3.47677383e-01  3.48063653e-01
  3.49454122e-01  3.52694322e-01  3.53493797e-01  3.56197726e-01
  3.59534694e-01  3.60290121e-01  3.65435287e-01  3.66789673e-01
  3.68981418e-01  3.69314480e-01  3.72865781e-01  3.73827203e-01
  3.74795275e-01  3.76656869e-01  3.78203349e-01  3.79187793e-01
  3.80146878e-01  3.81610134e-01  3.84496231e-01  3.85481019e-01
  3.86254719e-01  3.89895167e-01  3.91386174e-01  3.92240827e-01
  3.93880470e-01  3.96358610e-01  3.99518610e-01  4.00870807e-01
  4.02436574e-01  4.03494489e-01  4.05510836e-01  4.06224843e-01
  4.10966491e-01  4.12624775e-01  4.14951792e-01  4.16045890e-01
  4.18527207e-01  4.19745320e-01  4.21343781e-01  4.21760918e-01
  4.23389542e-01  4.25428002e-01  4.26318279e-01  4.27489193e-01
  4.29237308e-01  4.32134963e-01  4.32951058e-01  4.34066779e-01
  4.35648737e-01  4.37387367e-01  4.39817475e-01  4.41188918e-01
  4.42598641e-01  4.44717138e-01  4.46782031e-01  4.48930494e-01
  4.49348426e-01  4.50436165e-01  4.50647922e-01  4.52574422e-01
  4.53905390e-01  4.55028997e-01  4.56991515e-01  4.58858568e-01
  4.61313573e-01  4.64051426e-01  4.64840185e-01  4.65260128e-01
  4.65848082e-01  4.68350886e-01  4.69962939e-01  4.71666680e-01
  4.72739518e-01  4.73091594e-01  4.74926263e-01  4.77722328e-01
  4.78361937e-01  4.80027122e-01  4.80691561e-01  4.82483914e-01
  4.83908262e-01  4.86041502e-01  4.86871809e-01  4.88518275e-01
  4.89895859e-01  4.91618176e-01  4.92628208e-01  4.94850181e-01
  4.95614953e-01  4.97311467e-01  4.97616353e-01  4.98509148e-01
  4.99326670e-01  5.00635725e-01  5.01526315e-01  5.03833499e-01
  5.04784005e-01  5.06958858e-01  5.07696175e-01  5.08426807e-01
  5.09487442e-01  5.11954264e-01  5.12975045e-01  5.13970765e-01
  5.16453542e-01  5.17645915e-01  5.19136170e-01  5.22135155e-01
  5.23940827e-01  5.26604031e-01  5.28953363e-01  5.29487083e-01
  5.30915242e-01  5.32416419e-01  5.32648033e-01  5.35906315e-01
  5.36769974e-01  5.37770668e-01  5.39494754e-01  5.43913860e-01
  5.44305691e-01  5.45643948e-01  5.47022752e-01  5.49392999e-01
  5.51223715e-01  5.54865618e-01  5.57481311e-01  5.57615971e-01
  5.58284888e-01  5.58881336e-01  5.63093732e-01  5.65218341e-01
  5.66006628e-01  5.67824030e-01  5.69872127e-01  5.69972663e-01
  5.74197039e-01  5.75704960e-01  5.78195272e-01  5.79614445e-01
  5.82499659e-01  5.84076904e-01  5.85053559e-01  5.86462587e-01
  5.88221536e-01  5.88624929e-01  5.90917906e-01  5.91951336e-01
  5.95135256e-01  5.95310693e-01  5.99828182e-01  6.00680394e-01
  6.02485788e-01  6.03353308e-01  6.04555236e-01  6.05140255e-01
  6.08531160e-01  6.08995354e-01  6.11041627e-01  6.11947537e-01
  6.12867777e-01  6.14565156e-01  6.16197855e-01  6.16713561e-01
  6.18073983e-01  6.19794110e-01  6.20865499e-01  6.21826103e-01
  6.22899294e-01  6.25260517e-01  6.27763606e-01  6.29155640e-01
  6.29612837e-01  6.31694196e-01  6.32923129e-01  6.34409849e-01
  6.36839341e-01  6.38102741e-01  6.40798750e-01  6.41464756e-01
  6.42849358e-01  6.45191828e-01  6.46398341e-01  6.47527099e-01
  6.49394909e-01  6.53186694e-01  6.54082509e-01  6.55918559e-01
  6.56803577e-01  6.57756375e-01  6.61570816e-01  6.63118263e-01
  6.64163408e-01  6.66006343e-01  6.68310832e-01  6.70501851e-01
  6.73328992e-01  6.75629258e-01  6.76544726e-01  6.77002045e-01
  6.79073819e-01  6.80076318e-01  6.82447327e-01  6.82632213e-01
  6.84600713e-01  6.89620163e-01  6.91682307e-01  6.93726993e-01
  6.94802435e-01  6.96933370e-01  6.98881236e-01  7.02261491e-01
  7.03316596e-01  7.07273176e-01  7.09427536e-01  7.12237521e-01
  7.13568201e-01  7.13876683e-01  7.18324947e-01  7.18854790e-01
  7.22714933e-01  7.23068649e-01  7.26390141e-01  7.27811358e-01
  7.32110363e-01  7.34409319e-01  7.36568477e-01  7.37852520e-01
  7.38760814e-01  7.41559877e-01  7.43034420e-01  7.50397192e-01
  7.51656989e-01  7.51943476e-01  7.55071099e-01  7.57239554e-01
  7.57849975e-01  7.60935916e-01  7.61328625e-01  7.63344673e-01
  7.66051456e-01  7.66469852e-01  7.69890052e-01  7.72865684e-01
  7.73769475e-01  7.75973224e-01  7.79062626e-01  7.79518874e-01
  7.80870335e-01  7.83834188e-01  7.84188245e-01  7.85287052e-01
  7.89249883e-01  7.90200544e-01  7.92454604e-01  7.94300661e-01
  7.95597896e-01  7.96868666e-01  7.98542906e-01  8.01281665e-01
  8.02246589e-01  8.04042510e-01  8.05575103e-01  8.07029278e-01
  8.12381603e-01  8.13213471e-01  8.14556419e-01  8.16688374e-01
  8.18229202e-01  8.20150213e-01  8.23572065e-01  8.23642228e-01
  8.27176183e-01  8.27613070e-01  8.29071149e-01  8.30177355e-01
  8.33464749e-01  8.36210826e-01  8.37248971e-01  8.40091317e-01
  8.41184829e-01  8.42160343e-01  8.44653014e-01  8.45434823e-01
  8.48962078e-01  8.50058965e-01  8.51703704e-01  8.53846853e-01
  8.54828656e-01  8.56828631e-01  8.59417958e-01  8.62016753e-01
  8.62473942e-01  8.63914635e-01  8.64947142e-01  8.68263771e-01
  8.69794915e-01  8.70507310e-01  8.73136403e-01  8.74817018e-01
  8.76181733e-01  8.78289099e-01  8.79680268e-01  8.81036642e-01
  8.82815934e-01  8.85818627e-01  8.87226310e-01  8.88359255e-01
  8.90051722e-01  8.92939867e-01  8.95745691e-01  8.97139235e-01
  9.00728962e-01  9.01686312e-01  9.02630237e-01  9.04593910e-01
  9.05547134e-01  9.07725031e-01  9.08733436e-01  9.11218847e-01
  9.11769324e-01  9.14539644e-01  9.15440416e-01  9.18349289e-01
  9.19020928e-01  9.20487417e-01  9.22038074e-01  9.25629596e-01
  9.27695685e-01  9.28986959e-01  9.31990605e-01  9.33010245e-01
  9.34426758e-01  9.36528875e-01  9.38159201e-01  9.39269317e-01
  9.40529834e-01  9.42404363e-01  9.45075762e-01  9.49432262e-01
  9.50877337e-01  9.52721250e-01  9.53300881e-01  9.54898867e-01
  9.56660212e-01  9.59184683e-01  9.60292444e-01  9.62953031e-01
  9.64718685e-01  9.66957334e-01  9.69586962e-01  9.71005960e-01
  9.72065709e-01  9.72800683e-01  9.73960904e-01  9.77578637e-01
  9.78233047e-01  9.79865479e-01  9.80927770e-01  9.82875864e-01
  9.84879765e-01  9.86625177e-01  9.88177791e-01  9.90189701e-01
  9.91138236e-01  9.94445687e-01  9.94954486e-01  9.95819725e-01
  9.98730427e-01  1.00028182e+00  1.00080514e+00  1.00225998e+00
  1.00649325e+00  1.00772909e+00  1.01024063e+00  1.01245480e+00
  1.01313797e+00  1.01379378e+00  1.01578446e+00  1.01693557e+00
  1.01912210e+00  1.02095834e+00  1.02377580e+00  1.02575177e+00
  1.02862704e+00  1.03108729e+00  1.03295610e+00  1.03361948e+00
  1.03605679e+00  1.03687915e+00  1.03846381e+00  1.04192553e+00
  1.04431445e+00  1.04671718e+00  1.04808133e+00  1.04995997e+00
  1.05160671e+00  1.05253480e+00  1.05588265e+00  1.05660102e+00
  1.05851557e+00  1.05946706e+00  1.06028116e+00  1.06140482e+00
  1.06228395e+00  1.06432890e+00  1.06762455e+00  1.06916672e+00
  1.07015002e+00  1.07233759e+00  1.07304296e+00  1.07443345e+00
  1.07633557e+00  1.07748626e+00  1.08078863e+00  1.08121268e+00
  1.08297935e+00  1.08510165e+00  1.08647656e+00  1.08756014e+00
  1.09272053e+00  1.09428920e+00  1.09525663e+00  1.09595716e+00
  1.09814875e+00  1.09961630e+00  1.10103076e+00  1.10174238e+00
  1.10320242e+00  1.10455129e+00  1.10643666e+00  1.10810466e+00
  1.11041455e+00  1.11169784e+00  1.11250035e+00  1.11592730e+00
  1.11662497e+00  1.11959464e+00  1.12135541e+00  1.12241612e+00
  1.12378822e+00  1.12496626e+00  1.12625195e+00  1.12918660e+00
  1.13055823e+00  1.13203320e+00  1.13319149e+00  1.13603522e+00
  1.13777728e+00  1.13923851e+00  1.14019065e+00  1.14239108e+00
  1.14468707e+00  1.14767217e+00  1.14867301e+00  1.15218518e+00
  1.15398057e+00  1.15703668e+00  1.15788695e+00  1.15996781e+00
  1.16030778e+00  1.16403439e+00  1.16674758e+00  1.17009867e+00
  1.17104549e+00  1.17342320e+00  1.17506071e+00  1.17579604e+00
  1.17624311e+00  1.17830636e+00  1.17955402e+00  1.18082706e+00
  1.18548083e+00  1.18722252e+00  1.18966045e+00  1.19168852e+00
  1.19242797e+00  1.19423206e+00  1.19524602e+00  1.19875433e+00
  1.20061881e+00  1.20105883e+00  1.20182763e+00  1.20414556e+00
  1.20825565e+00  1.20897998e+00  1.21167909e+00  1.21267690e+00
  1.21318393e+00  1.21654089e+00  1.21821680e+00  1.21990337e+00
  1.22206177e+00  1.22460932e+00  1.22740602e+00  1.22844244e+00
  1.23068832e+00  1.23257822e+00  1.23354146e+00  1.23508679e+00
  1.23717916e+00  1.23999054e+00  1.24098501e+00  1.24187659e+00
  1.24551019e+00  1.24695508e+00  1.24818894e+00  1.25088395e+00
  1.25277318e+00  1.25509681e+00  1.25602604e+00  1.25823131e+00
  1.25922966e+00  1.26287852e+00  1.26332119e+00  1.26396405e+00
  1.26947854e+00  1.27157936e+00  1.27259923e+00  1.27626261e+00
  1.27912370e+00  1.27985514e+00  1.28152270e+00  1.28349584e+00
  1.28577089e+00  1.28804031e+00  1.28914595e+00  1.28984447e+00
  1.29150730e+00  1.29314667e+00  1.29521874e+00  1.29915073e+00
  1.30009450e+00  1.30038632e+00  1.30435236e+00  1.30583768e+00
  1.30712030e+00  1.31066916e+00  1.31100121e+00  1.31486119e+00
  1.31743035e+00  1.31821642e+00  1.31973562e+00  1.32268394e+00
  1.32349444e+00  1.32582483e+00  1.32883160e+00  1.32962304e+00
  1.33095305e+00  1.33312252e+00  1.33465618e+00  1.33690803e+00
  1.33898229e+00  1.34033968e+00  1.34712525e+00  1.34875341e+00
  1.34991667e+00  1.35114351e+00  1.35403885e+00  1.35573337e+00
  1.35800228e+00  1.35990242e+00  1.36183155e+00  1.36438675e+00
  1.36521309e+00  1.36853980e+00  1.36928723e+00  1.37293462e+00
  1.37697016e+00  1.37976761e+00  1.38129931e+00  1.38280092e+00
  1.38389512e+00  1.38665607e+00  1.38762180e+00  1.39229572e+00
  1.39471706e+00  1.39723117e+00  1.39873172e+00  1.40180901e+00
  1.40409975e+00  1.40812089e+00  1.40932389e+00  1.41068363e+00
  1.41296272e+00  1.41393781e+00  1.41653422e+00  1.42004738e+00
  1.42125673e+00  1.42377104e+00  1.42686792e+00  1.42866037e+00
  1.42990793e+00  1.43348582e+00  1.43580685e+00  1.43772852e+00
  1.43937427e+00  1.44078867e+00  1.44254239e+00  1.44558845e+00
  1.44712058e+00  1.45140227e+00  1.45333244e+00  1.45528782e+00
  1.45903345e+00  1.46152495e+00  1.46350189e+00  1.46482232e+00
  1.46860828e+00  1.46936913e+00  1.47069823e+00  1.47324390e+00
  1.47841914e+00  1.48015914e+00  1.48077929e+00  1.48330887e+00
  1.48528848e+00  1.48776896e+00  1.48984737e+00  1.49243851e+00
  1.49498051e+00  1.49824728e+00  1.50258887e+00  1.50625889e+00
  1.50803264e+00  1.50940025e+00  1.51430033e+00  1.51503699e+00
  1.52159347e+00  1.52433630e+00  1.52517057e+00  1.52984960e+00
  1.53117697e+00  1.53234033e+00  1.53530420e+00  1.53686643e+00
  1.54143244e+00  1.54596099e+00  1.54675945e+00  1.55207040e+00
  1.55465070e+00  1.55611277e+00  1.55860155e+00  1.56057909e+00
  1.56572851e+00  1.56745916e+00  1.57282984e+00  1.57628572e+00
  1.58023297e+00  1.58203402e+00  1.58521767e+00  1.58867831e+00
  1.59180417e+00  1.59356444e+00  1.59947284e+00  1.60453619e+00
  1.60539272e+00  1.61060779e+00  1.61401954e+00  1.61937490e+00
  1.62189622e+00  1.62584983e+00  1.62735396e+00  1.63149711e+00
  1.63389092e+00  1.63918602e+00  1.64154786e+00  1.64686911e+00
  1.64723299e+00  1.64938495e+00  1.65973508e+00  1.66284539e+00
  1.66976159e+00  1.67164838e+00  1.67552986e+00  1.67671649e+00
  1.68685281e+00  1.68896723e+00  1.69406239e+00  1.69676746e+00
  1.69952029e+00  1.70658298e+00  1.70819688e+00  1.71535517e+00
  1.71703734e+00  1.72075624e+00  1.73036651e+00  1.73448474e+00
  1.73967754e+00  1.74425280e+00  1.75109217e+00  1.76174792e+00
  1.76377151e+00  1.77321518e+00  1.77673324e+00  1.78232936e+00
  1.78717714e+00  1.79263189e+00  1.79833169e+00  1.80405708e+00
  1.81492823e+00  1.81928554e+00  1.82268181e+00  1.82397041e+00
  1.83263155e+00  1.83549962e+00  1.84469099e+00  1.85099846e+00
  1.86112660e+00  1.87633097e+00  1.88029570e+00  1.88628518e+00
  1.90511885e+00  1.90872617e+00  1.91844200e+00  1.92213406e+00
  1.93881741e+00  1.95865467e+00  1.96167114e+00  1.99625181e+00
  2.00912689e+00  2.02110950e+00  2.02535698e+00  2.04124318e+00
  2.08078138e+00  2.09256989e+00  2.14833428e+00  2.18343666e+00
  2.24622624e+00  2.27149590e+00  2.29967778e+00  2.36651140e+00
  2.42245331e+00  2.45506224e+00  2.49811817e+00  2.50098043e+00
  2.52785431e+00  2.55232000e+00  2.59761684e+00  2.64651710e+00
  2.68042066e+00  2.70553201e+00  2.78034474e+00  2.79646011e+00
  2.80503917e+00  2.85230533e+00  2.85993482e+00  2.88414329e+00
  2.96666447e+00  2.99246597e+00  3.02398398e+00  3.07550236e+00
  3.08550979e+00  3.13980014e+00  3.14264291e+00  3.16513493e+00
  3.17511397e+00  3.24886645e+00  3.25978081e+00  3.27951113e+00
  3.28335623e+00  3.29069688e+00  3.30801316e+00  3.33728796e+00
  3.35297485e+00  3.39927780e+00  3.40421981e+00  3.41588805e+00
  3.42536837e+00  3.43781477e+00  3.44185639e+00  3.46266581e+00
  3.49058585e+00  3.49416524e+00  3.51816344e+00  3.54535076e+00
  3.55339424e+00  3.57317567e+00  3.58661167e+00  3.60789214e+00
  3.62653241e+00  3.63956338e+00  3.64573245e+00  3.65828118e+00
  3.66826105e+00  3.69339588e+00  3.70169705e+00  3.70344962e+00
  3.72271833e+00  3.74026734e+00  3.75761582e+00  3.76494614e+00
  3.76743132e+00  3.76776631e+00  3.79034996e+00  3.81026017e+00
  3.81899064e+00  3.82517385e+00  3.83126544e+00  3.85497806e+00
  3.86584240e+00  3.87104819e+00  3.88161257e+00  3.91242877e+00
  3.92009465e+00  3.93211658e+00  3.94356894e+00  3.99368661e+00
  4.02218788e+00  4.03423148e+00  4.05220701e+00  4.07232354e+00
  4.09581680e+00  4.13814016e+00  4.22637835e+00  4.25756025e+00
  4.26805042e+00  4.28241207e+00  4.28446060e+00  4.29639340e+00
  4.36662912e+00  4.36889144e+00  4.38342119e+00  4.39455991e+00
  4.41806970e+00  4.43043579e+00  4.47657106e+00  4.49228177e+00
  4.49331029e+00  4.51566629e+00  4.58592246e+00  4.62466176e+00
  4.64931154e+00  4.66354172e+00  4.78674291e+00  4.81977744e+00
  4.85363941e+00  4.87135190e+00  4.93824657e+00  4.97435521e+00
  4.98558984e+00  5.02797405e+00  5.06410483e+00  5.12432671e+00
  5.21427479e+00  5.30013763e+00  5.30946490e+00  5.36175630e+00
  5.40736053e+00  5.49494356e+00  5.49576401e+00  5.49949850e+00
  5.62069802e+00  5.68441006e+00  5.69488076e+00  5.74103603e+00
  5.75482066e+00  5.77664860e+00  5.82337855e+00  5.92829413e+00
  5.96922566e+00  5.99700209e+00  6.05944573e+00  6.07931674e+00
  6.11116821e+00  6.16573055e+00  6.19855325e+00  6.24582120e+00
  6.26313947e+00  6.37855475e+00  6.42400012e+00  6.45268545e+00
  6.50259635e+00  6.60049302e+00  6.63881720e+00  6.76416975e+00
  6.84520492e+00  6.87268259e+00  6.92727885e+00  7.11393417e+00
  7.14189769e+00  7.17012440e+00  7.22085692e+00  7.24064770e+00
  7.27561608e+00  7.31168157e+00  7.38457139e+00  7.39048037e+00
  7.45480973e+00  7.55592263e+00  7.62425483e+00  7.68492299e+00
  7.78410729e+00  7.80484691e+00  8.07336096e+00  8.10646228e+00
  8.15251742e+00  8.50553821e+00  1.13634005e+01  1.31972283e+01
  1.34194022e+01  1.41271266e+01  1.58717488e+01  1.76311384e+01]
    CPU time for vj and vk   6192.23 sec, wall time    194.07 sec
E1 = -2861.341064334816  E_coul = 1231.7361798699858
cycle= 2 E= -578.427176607199  delta_E= 0.161  |g|= 0.977  |ddm|= 18.2
    CPU time for cycle= 2   6196.02 sec, wall time    194.60 sec
diis-norm(errvec)=7.50807
diis-c [-3.9998615   0.59732298  0.40267702]
  HOMO = -0.121133700730398  LUMO = -0.0338795325312552
  mo_energy =
[-2.06425085e+01 -2.06400017e+01 -2.05356866e+01 -1.15541431e+01
 -1.13695079e+01 -1.13684923e+01 -2.47181322e+00 -2.46554559e+00
 -2.46195015e+00 -2.45852333e+00 -2.45589240e+00 -2.45510087e+00
 -2.45423911e+00 -2.45389083e+00 -2.45306483e+00 -2.45229554e+00
 -2.45143728e+00 -2.45134599e+00 -2.44947214e+00 -2.44854035e+00
 -2.44651269e+00 -2.44288100e+00 -2.43963006e+00 -2.43573640e+00
 -2.43534324e+00 -2.43464427e+00 -2.43360503e+00 -2.43162090e+00
 -2.43018847e+00 -2.42709546e+00 -2.42623038e+00 -2.42469163e+00
 -2.42410020e+00 -2.41991230e+00 -2.41957191e+00 -2.41777277e+00
 -2.41738539e+00 -2.41044843e+00 -1.67157284e+00 -1.50222660e+00
 -1.49636746e+00 -1.17028742e+00 -1.01724200e+00 -9.22272753e-01
 -8.59750453e-01 -8.19837332e-01 -7.75189792e-01 -7.27786101e-01
 -7.08398333e-01 -7.02233947e-01 -6.24540793e-01 -6.11534373e-01
 -5.43995132e-01 -5.32922416e-01 -5.26232925e-01 -3.37304599e-01
 -2.95078547e-01 -2.93149453e-01 -2.53851642e-01 -2.48313111e-01
 -2.20947088e-01 -2.16589481e-01 -2.05055559e-01 -1.93444164e-01
 -1.70668574e-01 -1.65066058e-01 -1.50293417e-01 -1.40579305e-01
 -1.30556338e-01 -1.23967834e-01 -1.21133701e-01 -3.38795325e-02
 -2.24001215e-02 -1.88125189e-02 -1.62884574e-02 -1.11946128e-02
 -9.98483321e-03 -2.14559681e-03  1.03884420e-03  3.54433271e-03
  5.31113507e-03  6.45937448e-03  7.97818692e-03  1.54855783e-02
  1.66721034e-02  1.90450975e-02  2.20575984e-02  2.35777094e-02
  3.00917464e-02  3.29816654e-02  3.39307037e-02  3.51648272e-02
  3.62421779e-02  3.80510135e-02  3.89684335e-02  4.09766303e-02
  4.32967930e-02  4.47782217e-02  4.86212379e-02  4.97965200e-02
  5.16570969e-02  5.19863617e-02  5.39052187e-02  5.49496831e-02
  5.64628729e-02  5.77323031e-02  5.85712670e-02  5.94442765e-02
  6.02807586e-02  6.18725876e-02  6.22054145e-02  6.34997235e-02
  6.52242407e-02  6.65517476e-02  6.70364035e-02  6.80626242e-02
  6.93885463e-02  7.16990658e-02  7.25027345e-02  7.44639936e-02
  7.48616206e-02  7.57147803e-02  7.80389492e-02  8.08903164e-02
  8.15215359e-02  8.21131788e-02  8.33775272e-02  8.44695189e-02
  8.51413913e-02  8.64856305e-02  8.69576234e-02  8.84479742e-02
  8.95713378e-02  9.07213535e-02  9.13446864e-02  9.22610065e-02
  9.38977978e-02  9.55712626e-02  9.62021966e-02  9.65709939e-02
  9.76724209e-02  9.86535164e-02  9.97736372e-02  1.00791562e-01
  1.02352631e-01  1.02971260e-01  1.05330041e-01  1.05795660e-01
  1.07224362e-01  1.10129767e-01  1.11271606e-01  1.12401882e-01
  1.14015669e-01  1.15310039e-01  1.16421127e-01  1.19080347e-01
  1.19690903e-01  1.19982792e-01  1.22116325e-01  1.23009129e-01
  1.23666471e-01  1.24827818e-01  1.25723889e-01  1.27691265e-01
  1.27858642e-01  1.28877360e-01  1.29264839e-01  1.33465956e-01
  1.33813174e-01  1.35031595e-01  1.35868185e-01  1.38191317e-01
  1.38718476e-01  1.40197346e-01  1.41339945e-01  1.42837005e-01
  1.43177837e-01  1.45390518e-01  1.45696766e-01  1.46587685e-01
  1.47315702e-01  1.49511343e-01  1.50176530e-01  1.50854064e-01
  1.51607865e-01  1.52548127e-01  1.54041748e-01  1.54486451e-01
  1.55086870e-01  1.56182738e-01  1.57699117e-01  1.59652816e-01
  1.61211838e-01  1.62099310e-01  1.62715433e-01  1.64234844e-01
  1.65402470e-01  1.67354652e-01  1.68588868e-01  1.70261101e-01
  1.70613954e-01  1.72861395e-01  1.74404487e-01  1.77001120e-01
  1.78205412e-01  1.79082605e-01  1.80565442e-01  1.81271262e-01
  1.82559600e-01  1.83423662e-01  1.84560964e-01  1.87025492e-01
  1.87592232e-01  1.87920526e-01  1.88618904e-01  1.91050433e-01
  1.92292436e-01  1.95079343e-01  1.95899718e-01  1.97376668e-01
  2.00738958e-01  2.02149018e-01  2.02899350e-01  2.05073346e-01
  2.05831071e-01  2.06502564e-01  2.09330579e-01  2.11552621e-01
  2.11836358e-01  2.12967962e-01  2.14595212e-01  2.15317145e-01
  2.16068241e-01  2.18825538e-01  2.19635400e-01  2.20907230e-01
  2.21780716e-01  2.22386122e-01  2.23760534e-01  2.25348581e-01
  2.26123240e-01  2.27308448e-01  2.28520665e-01  2.29846281e-01
  2.31230691e-01  2.31707080e-01  2.32854874e-01  2.34887371e-01
  2.36087420e-01  2.37030677e-01  2.37617703e-01  2.39876293e-01
  2.41896319e-01  2.43781370e-01  2.44191322e-01  2.46724306e-01
  2.47181717e-01  2.48883445e-01  2.49967798e-01  2.52355507e-01
  2.52950612e-01  2.54684839e-01  2.56188749e-01  2.57804907e-01
  2.61649524e-01  2.62987662e-01  2.64175569e-01  2.64706579e-01
  2.65800926e-01  2.66813892e-01  2.68893850e-01  2.71302734e-01
  2.72534742e-01  2.75992814e-01  2.78524042e-01  2.81492916e-01
  2.82658523e-01  2.84252465e-01  2.86851147e-01  2.88562212e-01
  2.90645194e-01  2.92309168e-01  2.94137397e-01  2.97874866e-01
  2.99320961e-01  3.01633511e-01  3.02824590e-01  3.03619838e-01
  3.07648140e-01  3.08963532e-01  3.10140061e-01  3.13518031e-01
  3.15212934e-01  3.16479560e-01  3.18095534e-01  3.19009143e-01
  3.19748177e-01  3.23063478e-01  3.23510692e-01  3.23839968e-01
  3.25435955e-01  3.27875024e-01  3.31043345e-01  3.33797064e-01
  3.34563541e-01  3.36200959e-01  3.36816278e-01  3.38040385e-01
  3.41504589e-01  3.42152629e-01  3.44285151e-01  3.44817671e-01
  3.45481293e-01  3.45964293e-01  3.50069842e-01  3.51362399e-01
  3.53838860e-01  3.54727031e-01  3.56551476e-01  3.58672762e-01
  3.60550344e-01  3.63633754e-01  3.65410091e-01  3.66348336e-01
  3.68529534e-01  3.69133616e-01  3.70822731e-01  3.74759512e-01
  3.75990817e-01  3.78043810e-01  3.80025634e-01  3.81595062e-01
  3.83579514e-01  3.84294329e-01  3.85805155e-01  3.87472173e-01
  3.89387901e-01  3.91136851e-01  3.92586797e-01  3.93191275e-01
  3.94698498e-01  3.98923226e-01  3.99948159e-01  4.01285744e-01
  4.02640291e-01  4.04066986e-01  4.05145416e-01  4.06765417e-01
  4.09328703e-01  4.09878693e-01  4.10219463e-01  4.10935094e-01
  4.12940135e-01  4.15466704e-01  4.17264083e-01  4.18275571e-01
  4.20477199e-01  4.21956890e-01  4.22453054e-01  4.24029654e-01
  4.26761583e-01  4.28266731e-01  4.30689299e-01  4.32536202e-01
  4.34746432e-01  4.36726561e-01  4.38514481e-01  4.39386094e-01
  4.40672413e-01  4.42757778e-01  4.43862659e-01  4.44636918e-01
  4.44989035e-01  4.45880487e-01  4.49055218e-01  4.49909200e-01
  4.50733701e-01  4.52790207e-01  4.54584352e-01  4.55937299e-01
  4.56891418e-01  4.57595640e-01  4.57988837e-01  4.60445755e-01
  4.60732312e-01  4.61786315e-01  4.63273114e-01  4.64283474e-01
  4.65890392e-01  4.66297334e-01  4.67764613e-01  4.70737883e-01
  4.71820167e-01  4.72271277e-01  4.74295188e-01  4.75359889e-01
  4.76971075e-01  4.77268691e-01  4.77922165e-01  4.79197455e-01
  4.80794081e-01  4.81994105e-01  4.83414257e-01  4.86538539e-01
  4.87353373e-01  4.88218541e-01  4.89334714e-01  4.91017354e-01
  4.93653660e-01  4.96475440e-01  4.96580255e-01  4.97969683e-01
  4.99900060e-01  5.01516045e-01  5.02501679e-01  5.05049342e-01
  5.06900839e-01  5.08088651e-01  5.09856071e-01  5.10226456e-01
  5.12267822e-01  5.13904800e-01  5.15871506e-01  5.16945071e-01
  5.18693448e-01  5.21505147e-01  5.22905157e-01  5.23856885e-01
[...]
    CPU time for cycle= 47   3864.97 sec, wall time    121.55 sec
  HOMO = -0.115418946581588  LUMO = -0.0108894029417883
  mo_energy =
[-2.06480506e+01 -2.06475562e+01 -2.05824449e+01 -1.14518338e+01
 -1.13106632e+01 -1.13095916e+01 -2.44715569e+00 -2.44096287e+00
 -2.44005603e+00 -2.43827652e+00 -2.43455763e+00 -2.43377474e+00
 -2.43341959e+00 -2.43323437e+00 -2.43275486e+00 -2.43264894e+00
 -2.43238658e+00 -2.42988614e+00 -2.42719401e+00 -2.42639609e+00
 -2.42610479e+00 -2.42467285e+00 -2.42448474e+00 -2.42354365e+00
 -2.42348766e+00 -2.42169102e+00 -2.42136414e+00 -2.42088220e+00
 -2.41694506e+00 -2.41656438e+00 -2.41081400e+00 -2.41005265e+00
 -2.40615118e+00 -2.40020584e+00 -2.39240536e+00 -2.38899376e+00
 -2.38851808e+00 -2.38596689e+00 -1.63929160e+00 -1.48843894e+00
 -1.47204526e+00 -1.13187363e+00 -9.86431395e-01 -8.99025091e-01
 -8.33201011e-01 -8.07588382e-01 -7.50932128e-01 -7.24032665e-01
 -6.86226097e-01 -6.80655134e-01 -6.13268747e-01 -5.86857847e-01
 -5.44696563e-01 -5.28836825e-01 -5.07010263e-01 -3.14009418e-01
 -2.76591976e-01 -2.74080247e-01 -2.37561381e-01 -2.32733286e-01
 -2.07350378e-01 -2.03314011e-01 -1.90936675e-01 -1.81436539e-01
 -1.74533831e-01 -1.56497566e-01 -1.44495892e-01 -1.36087476e-01
 -1.25521939e-01 -1.18082118e-01 -1.15418947e-01 -1.08894029e-02
 -4.39203890e-03 -2.14136089e-03  6.80337069e-04  4.74875278e-03
  7.10130999e-03  1.09044633e-02  1.24557036e-02  1.39155495e-02
  1.62755335e-02  1.94111341e-02  2.07069097e-02  2.35312236e-02
  2.47002176e-02  2.72474019e-02  2.80173039e-02  3.24062243e-02
  3.64285050e-02  3.83497194e-02  3.95614914e-02  4.19080500e-02
  4.24215747e-02  4.31748168e-02  4.47338975e-02  4.69876170e-02
  4.86317939e-02  5.06964635e-02  5.46160730e-02  5.51599573e-02
  5.67207222e-02  5.73471044e-02  5.89188779e-02  6.03343319e-02
  6.09714845e-02  6.22072093e-02  6.26218820e-02  6.40051816e-02
  6.47283383e-02  6.64577787e-02  6.68810135e-02  6.77347078e-02
  6.86936414e-02  7.13888656e-02  7.22755175e-02  7.29150588e-02
  7.46449876e-02  7.58285309e-02  7.72620296e-02  7.73984460e-02
  7.95088766e-02  8.17681544e-02  8.30872796e-02  8.44206394e-02
  8.54757308e-02  8.61085081e-02  8.80799996e-02  8.88306586e-02
  8.96646854e-02  9.02862532e-02  9.14540597e-02  9.31109313e-02
  9.38474199e-02  9.45168812e-02  9.54315795e-02  9.65294103e-02
  9.71047425e-02  9.76599772e-02  9.91884554e-02  1.00206519e-01
  1.00492444e-01  1.02654390e-01  1.03360566e-01  1.05991038e-01
  1.07129312e-01  1.07841456e-01  1.08951596e-01  1.10463082e-01
  1.11592533e-01  1.13831333e-01  1.14489062e-01  1.17295160e-01
  1.19281394e-01  1.20662374e-01  1.21865193e-01  1.23004590e-01
  1.23232742e-01  1.24217776e-01  1.24684388e-01  1.24899203e-01
  1.27144663e-01  1.28377754e-01  1.28866418e-01  1.29878545e-01
  1.31334214e-01  1.32901547e-01  1.33595562e-01  1.35843453e-01
  1.36861116e-01  1.39200552e-01  1.40222507e-01  1.42545316e-01
  1.44030341e-01  1.45268614e-01  1.46412884e-01  1.47483887e-01
  1.48309942e-01  1.50236944e-01  1.50725553e-01  1.51105858e-01
  1.53076968e-01  1.54498160e-01  1.54821556e-01  1.55293959e-01
  1.56709022e-01  1.58177159e-01  1.59374353e-01  1.60712033e-01
  1.61110103e-01  1.62563326e-01  1.63751189e-01  1.65343769e-01
  1.66361936e-01  1.67633501e-01  1.68951583e-01  1.70583089e-01
  1.71333000e-01  1.73912921e-01  1.74645409e-01  1.75929374e-01
  1.77482503e-01  1.79301499e-01  1.82193618e-01  1.83974833e-01
  1.85189312e-01  1.86447911e-01  1.86847716e-01  1.87660348e-01
  1.89113131e-01  1.90742110e-01  1.91918793e-01  1.95023487e-01
  1.95849555e-01  1.96812699e-01  1.98180003e-01  1.98396341e-01
  2.01118691e-01  2.03896075e-01  2.06347214e-01  2.09216342e-01
  2.10234795e-01  2.10859757e-01  2.11370890e-01  2.12589700e-01
  2.13601365e-01  2.15541225e-01  2.17608057e-01  2.18722524e-01
  2.20490161e-01  2.21556879e-01  2.22627637e-01  2.23771883e-01
  2.25784833e-01  2.26770029e-01  2.27215978e-01  2.28290794e-01
  2.29373782e-01  2.30700798e-01  2.31116217e-01  2.33579824e-01
  2.34953074e-01  2.35667720e-01  2.36672803e-01  2.37433734e-01
  2.38309826e-01  2.39595547e-01  2.41213201e-01  2.42301993e-01
  2.42695964e-01  2.45635000e-01  2.46276950e-01  2.47816686e-01
  2.50238188e-01  2.52007322e-01  2.53428950e-01  2.55946585e-01
  2.56540596e-01  2.58204852e-01  2.61693077e-01  2.62287433e-01
  2.63401727e-01  2.65032863e-01  2.66156502e-01  2.67902633e-01
  2.70006892e-01  2.70639602e-01  2.72610456e-01  2.74029812e-01
  2.74431492e-01  2.76985778e-01  2.77875758e-01  2.80213725e-01
  2.81440212e-01  2.85205962e-01  2.87578836e-01  2.89845324e-01
  2.92177392e-01  2.94563878e-01  2.96013044e-01  2.99673778e-01
  3.00473589e-01  3.02533842e-01  3.03747972e-01  3.07557526e-01
  3.09187018e-01  3.09855319e-01  3.13335650e-01  3.13780498e-01
  3.17838771e-01  3.19243314e-01  3.20039464e-01  3.23164233e-01
  3.25290170e-01  3.25864713e-01  3.29077921e-01  3.29530016e-01
  3.29753393e-01  3.33876068e-01  3.35336629e-01  3.35736949e-01
  3.36666442e-01  3.39040801e-01  3.41403472e-01  3.43114332e-01
  3.46159989e-01  3.47089587e-01  3.48736619e-01  3.50263204e-01
  3.52720816e-01  3.54012820e-01  3.55117411e-01  3.55887987e-01
  3.56779698e-01  3.57035034e-01  3.60413274e-01  3.62779938e-01
  3.63612673e-01  3.65055721e-01  3.68268770e-01  3.69110528e-01
  3.71143334e-01  3.74337951e-01  3.75289214e-01  3.77500307e-01
  3.79580355e-01  3.81149531e-01  3.83972252e-01  3.85290209e-01
  3.87856115e-01  3.88182325e-01  3.89986530e-01  3.90876322e-01
  3.93917558e-01  3.95103023e-01  3.96112469e-01  3.98311843e-01
  4.00306605e-01  4.01600702e-01  4.02338059e-01  4.03671287e-01
  4.07089917e-01  4.08254672e-01  4.11076321e-01  4.11644870e-01
  4.12976556e-01  4.14367278e-01  4.15655438e-01  4.18551247e-01
  4.19239140e-01  4.20821672e-01  4.21389867e-01  4.21807575e-01
  4.24276790e-01  4.25667215e-01  4.27748707e-01  4.29413600e-01
  4.32165425e-01  4.33706031e-01  4.34170972e-01  4.35404781e-01
  4.36548755e-01  4.37985775e-01  4.41291621e-01  4.44411364e-01
  4.45590385e-01  4.47278895e-01  4.47758762e-01  4.48374919e-01
  4.50975876e-01  4.52611164e-01  4.54042029e-01  4.54992911e-01
  4.55800232e-01  4.57070802e-01  4.59616566e-01  4.59795067e-01
  4.61375075e-01  4.62624550e-01  4.63560491e-01  4.66137266e-01
  4.67080497e-01  4.68086550e-01  4.69522499e-01  4.71078164e-01
  4.71626033e-01  4.72403491e-01  4.73696115e-01  4.75369292e-01
  4.75890472e-01  4.77463222e-01  4.79173290e-01  4.80924072e-01
  4.82241519e-01  4.82648521e-01  4.84585570e-01  4.85444630e-01
  4.87065179e-01  4.87316277e-01  4.88904522e-01  4.89088414e-01
  4.91306639e-01  4.93462539e-01  4.95372634e-01  4.96422949e-01
  4.98148471e-01  4.98936781e-01  5.00884119e-01  5.01576127e-01
  5.05205491e-01  5.05982646e-01  5.08688843e-01  5.09013694e-01
  5.10932481e-01  5.11914450e-01  5.13532721e-01  5.17437305e-01
  5.18855887e-01  5.19558660e-01  5.20842836e-01  5.22071169e-01
  5.23048723e-01  5.24263800e-01  5.27064985e-01  5.28236654e-01
  5.30266667e-01  5.32520189e-01  5.34758791e-01  5.35679225e-01
  5.36757325e-01  5.38321568e-01  5.38902500e-01  5.39974370e-01
  5.41355973e-01  5.43042225e-01  5.43981284e-01  5.45562986e-01
  5.46028954e-01  5.47325740e-01  5.49333853e-01  5.49454123e-01
  5.51918738e-01  5.52264922e-01  5.57147039e-01  5.57437348e-01
  5.59203042e-01  5.61737047e-01  5.61925508e-01  5.62859969e-01
  5.64008723e-01  5.65344758e-01  5.69343232e-01  5.69885064e-01
  5.70681844e-01  5.73001626e-01  5.73796204e-01  5.75637802e-01
  5.77495689e-01  5.79021323e-01  5.79897850e-01  5.82017014e-01
  5.82690287e-01  5.86913107e-01  5.87777909e-01  5.90324281e-01
  5.90962621e-01  5.93733013e-01  5.94855832e-01  5.96124778e-01
  5.98195614e-01  6.00611948e-01  6.02753699e-01  6.03974782e-01
  6.06485559e-01  6.07168261e-01  6.11441901e-01  6.13436568e-01
  6.14617092e-01  6.16123273e-01  6.18088247e-01  6.19767293e-01
  6.21287267e-01  6.22078898e-01  6.25135308e-01  6.26684232e-01
  6.27551428e-01  6.28581973e-01  6.31836728e-01  6.35705176e-01
  6.37945718e-01  6.39860934e-01  6.41654198e-01  6.42911658e-01
  6.44941466e-01  6.46149697e-01  6.47214314e-01  6.50838053e-01
  6.53893165e-01  6.55624731e-01  6.58946907e-01  6.60053332e-01
  6.61029003e-01  6.62113859e-01  6.65486900e-01  6.66762176e-01
  6.68939163e-01  6.69775359e-01  6.73012591e-01  6.74021350e-01
  6.76050584e-01  6.79467387e-01  6.83084946e-01  6.85787479e-01
  6.88033934e-01  6.90014192e-01  6.91541310e-01  6.93758405e-01
  6.94887910e-01  6.97159912e-01  6.99516724e-01  7.01413367e-01
  7.03917802e-01  7.05530323e-01  7.06211468e-01  7.10343173e-01
  7.11530016e-01  7.12514183e-01  7.14041719e-01  7.15336732e-01
  7.16747270e-01  7.19289937e-01  7.21929205e-01  7.23414691e-01
  7.25023512e-01  7.25989730e-01  7.29926822e-01  7.31653615e-01
  7.32825514e-01  7.35048300e-01  7.37542596e-01  7.38444258e-01
  7.40449965e-01  7.41733552e-01  7.44115092e-01  7.45653181e-01
  7.46933167e-01  7.48377962e-01  7.50003459e-01  7.51345900e-01
  7.53168409e-01  7.54021760e-01  7.56765601e-01  7.59695864e-01
  7.61297223e-01  7.63304526e-01  7.64776289e-01  7.67076470e-01
  7.68608774e-01  7.68989545e-01  7.73412498e-01  7.75031531e-01
  7.76186448e-01  7.78649094e-01  7.79586862e-01  7.81876037e-01
  7.82568444e-01  7.84472947e-01  7.87779560e-01  7.88714913e-01
  7.91418184e-01  7.93968655e-01  7.95367106e-01  7.96423944e-01
  7.98091913e-01  7.99288030e-01  8.02251887e-01  8.03681280e-01
  8.07301176e-01  8.08180389e-01  8.09985882e-01  8.10276420e-01
  8.11554834e-01  8.13658724e-01  8.13846464e-01  8.14805875e-01
  8.16551636e-01  8.18802940e-01  8.19651023e-01  8.23716652e-01
  8.25184533e-01  8.27068659e-01  8.27758483e-01  8.29574925e-01
  8.32845258e-01  8.36309761e-01  8.37460929e-01  8.38021612e-01
  8.39759586e-01  8.42084590e-01  8.43369280e-01  8.45415770e-01
  8.47936185e-01  8.50146443e-01  8.50805918e-01  8.52093549e-01
  8.55603134e-01  8.57015125e-01  8.58990767e-01  8.60035082e-01
  8.61111202e-01  8.64563350e-01  8.65877561e-01  8.68873459e-01
  8.70416463e-01  8.71877627e-01  8.74261782e-01  8.75475161e-01
  8.76145212e-01  8.78800109e-01  8.80138882e-01  8.84468611e-01
  8.85182516e-01  8.87463381e-01  8.87646478e-01  8.90497802e-01
  8.94171119e-01  8.95280048e-01  8.96221922e-01  8.99281855e-01
  9.00054425e-01  9.01012476e-01  9.03898055e-01  9.05573424e-01
  9.07550848e-01  9.09741196e-01  9.11367139e-01  9.12707370e-01
  9.15942561e-01  9.16601191e-01  9.18462185e-01  9.19915000e-01
  9.21429491e-01  9.23885967e-01  9.24628029e-01  9.25169612e-01
  9.27879049e-01  9.30647369e-01  9.31639263e-01  9.32210830e-01
  9.33723588e-01  9.34447019e-01  9.36536684e-01  9.37894161e-01
  9.40770986e-01  9.42063342e-01  9.42505302e-01  9.46646715e-01
  9.47789590e-01  9.50773821e-01  9.52404921e-01  9.53375164e-01
  9.55107460e-01  9.56466616e-01  9.58538244e-01  9.60543732e-01
  9.62566232e-01  9.62907581e-01  9.64688979e-01  9.67483670e-01
  9.70052708e-01  9.70776031e-01  9.73064694e-01  9.75333340e-01
  9.76146813e-01  9.79027642e-01  9.79268537e-01  9.81312636e-01
  9.82706626e-01  9.84722302e-01  9.86531959e-01  9.87741397e-01
  9.89462551e-01  9.91617867e-01  9.93126962e-01  9.95184237e-01
  9.97806014e-01  9.99313452e-01  1.00069369e+00  1.00209309e+00
  1.00416120e+00  1.00536804e+00  1.00920178e+00  1.01086827e+00
  1.01223659e+00  1.01383189e+00  1.01533215e+00  1.01815561e+00
  1.01974291e+00  1.01982785e+00  1.02059179e+00  1.02199749e+00
  1.02314010e+00  1.02583694e+00  1.02782709e+00  1.02968627e+00
  1.03092452e+00  1.03149038e+00  1.03487797e+00  1.03567530e+00
  1.03665953e+00  1.03819430e+00  1.03935794e+00  1.04105611e+00
  1.04160978e+00  1.04316516e+00  1.04547858e+00  1.04701975e+00
  1.04925233e+00  1.05124370e+00  1.05234583e+00  1.05296549e+00
  1.05494253e+00  1.05774271e+00  1.05865625e+00  1.06091201e+00
  1.06234465e+00  1.06476409e+00  1.06508097e+00  1.06616378e+00
  1.07046449e+00  1.07107972e+00  1.07174567e+00  1.07257946e+00
  1.07464134e+00  1.07740707e+00  1.07994484e+00  1.08152874e+00
  1.08197980e+00  1.08399780e+00  1.08468915e+00  1.08532835e+00
  1.08620716e+00  1.08899437e+00  1.09078504e+00  1.09368451e+00
  1.09437927e+00  1.09641627e+00  1.09699196e+00  1.10005688e+00
  1.10272213e+00  1.10437793e+00  1.10509878e+00  1.10769212e+00
  1.10998482e+00  1.11065699e+00  1.11179392e+00  1.11379698e+00
  1.11703101e+00  1.11867993e+00  1.12006511e+00  1.12270798e+00
  1.12404398e+00  1.12578465e+00  1.12655148e+00  1.12995814e+00
  1.13017401e+00  1.13213953e+00  1.13285153e+00  1.13724073e+00
  1.13851603e+00  1.14049793e+00  1.14268324e+00  1.14448183e+00
  1.14563255e+00  1.14828422e+00  1.14940095e+00  1.15296547e+00
  1.15486460e+00  1.15600760e+00  1.15944043e+00  1.16181472e+00
  1.16581649e+00  1.16805191e+00  1.16896412e+00  1.16973398e+00
  1.17071797e+00  1.17316854e+00  1.17695465e+00  1.18092999e+00
  1.18215358e+00  1.18283530e+00  1.18451684e+00  1.18615420e+00
  1.18690171e+00  1.19009226e+00  1.19228467e+00  1.19342487e+00
  1.19490386e+00  1.19674895e+00  1.19905011e+00  1.20062321e+00
  1.20288059e+00  1.20559196e+00  1.20624778e+00  1.20758512e+00
  1.20858013e+00  1.21356900e+00  1.21525091e+00  1.21636649e+00
  1.21845733e+00  1.21897469e+00  1.22061681e+00  1.22372285e+00
  1.22412502e+00  1.22501609e+00  1.22630559e+00  1.22853774e+00
  1.23017447e+00  1.23133767e+00  1.23339432e+00  1.23634302e+00
  1.23799364e+00  1.24049446e+00  1.24136879e+00  1.24262124e+00
  1.24586608e+00  1.24726987e+00  1.24967319e+00  1.25100520e+00
  1.25299633e+00  1.25553524e+00  1.25726608e+00  1.25999161e+00
  1.26072845e+00  1.26182997e+00  1.26339897e+00  1.26450976e+00
  1.26747400e+00  1.26847915e+00  1.27125390e+00  1.27376168e+00
  1.27538559e+00  1.27990849e+00  1.28049613e+00  1.28131892e+00
  1.28349065e+00  1.28706911e+00  1.28776772e+00  1.28969902e+00
  1.29098339e+00  1.29402436e+00  1.29637657e+00  1.29939584e+00
  1.30312258e+00  1.30528581e+00  1.30768890e+00  1.30918734e+00
  1.31124851e+00  1.31189385e+00  1.31365996e+00  1.31458124e+00
  1.31661873e+00  1.31812315e+00  1.31900096e+00  1.32149651e+00
  1.32239454e+00  1.32434629e+00  1.32688760e+00  1.32919780e+00
  1.33133678e+00  1.33223276e+00  1.33426719e+00  1.33690258e+00
  1.33884613e+00  1.34005111e+00  1.34379547e+00  1.34487678e+00
  1.34627398e+00  1.34701563e+00  1.34839108e+00  1.35316520e+00
  1.35410490e+00  1.35525099e+00  1.35617218e+00  1.35798553e+00
  1.36109828e+00  1.36473516e+00  1.36581080e+00  1.36813784e+00
  1.37033914e+00  1.37154043e+00  1.37178258e+00  1.37425918e+00
  1.37860606e+00  1.37978233e+00  1.38132726e+00  1.38270373e+00
  1.38388549e+00  1.38562788e+00  1.38874146e+00  1.39041317e+00
  1.39573387e+00  1.39768647e+00  1.39990378e+00  1.40212674e+00
  1.40758486e+00  1.40771109e+00  1.40923912e+00  1.41202127e+00
  1.41415778e+00  1.41523262e+00  1.41878118e+00  1.42049340e+00
  1.42292089e+00  1.42502964e+00  1.42899620e+00  1.43183418e+00
  1.43386148e+00  1.43774619e+00  1.43985577e+00  1.44215661e+00
  1.44665121e+00  1.44716813e+00  1.44845675e+00  1.45116313e+00
  1.45602146e+00  1.45922634e+00  1.46080099e+00  1.46526636e+00
  1.46562493e+00  1.46909818e+00  1.47174777e+00  1.47748253e+00
  1.47769159e+00  1.47979961e+00  1.48056304e+00  1.48664799e+00
  1.48873932e+00  1.48993648e+00  1.49426515e+00  1.49596108e+00
  1.49894894e+00  1.50351394e+00  1.50421133e+00  1.50830355e+00
  1.51382376e+00  1.51495017e+00  1.51762607e+00  1.52074708e+00
  1.52292342e+00  1.52622430e+00  1.53017645e+00  1.53456634e+00
  1.53665948e+00  1.54118888e+00  1.54208814e+00  1.54878443e+00
  1.55081600e+00  1.55358492e+00  1.55500624e+00  1.55965129e+00
  1.56177215e+00  1.56598495e+00  1.56957480e+00  1.57187180e+00
  1.57401546e+00  1.58212431e+00  1.58384855e+00  1.59029929e+00
  1.59239908e+00  1.59623073e+00  1.60139217e+00  1.60403181e+00
  1.60660084e+00  1.61282241e+00  1.61877296e+00  1.62012769e+00
  1.62780240e+00  1.63484623e+00  1.63851203e+00  1.64104710e+00
  1.64502289e+00  1.65332539e+00  1.66040555e+00  1.66544442e+00
  1.67559417e+00  1.67764273e+00  1.68111351e+00  1.68392004e+00
  1.68643049e+00  1.69535360e+00  1.69852268e+00  1.70179496e+00
  1.70490591e+00  1.71016409e+00  1.71861652e+00  1.72001947e+00
  1.72541814e+00  1.73196468e+00  1.73832586e+00  1.75132599e+00
  1.76581645e+00  1.76716242e+00  1.78153860e+00  1.78300826e+00
  1.80134317e+00  1.82407175e+00  1.83981874e+00  1.84006942e+00
  1.86329888e+00  1.86760328e+00  1.89418621e+00  1.91104548e+00
  1.94567047e+00  1.95434236e+00  1.96062208e+00  1.99384533e+00
  2.01119602e+00  2.03205313e+00  2.09085895e+00  2.14538068e+00
  2.18666005e+00  2.27613220e+00  2.31026322e+00  2.37613410e+00
  2.43963609e+00  2.45991203e+00  2.49780823e+00  2.53120225e+00
  2.54070613e+00  2.57426971e+00  2.64395524e+00  2.70383692e+00
  2.72387047e+00  2.73813809e+00  2.80936997e+00  2.83673937e+00
  2.84848231e+00  2.89212139e+00  2.89488906e+00  2.91957797e+00
  2.99938599e+00  3.02675399e+00  3.08633682e+00  3.12836861e+00
  3.14302858e+00  3.16370490e+00  3.19650129e+00  3.21879533e+00
  3.24225352e+00  3.27357287e+00  3.31166906e+00  3.31306101e+00
  3.34064724e+00  3.35046918e+00  3.36456532e+00  3.37965632e+00
  3.39192409e+00  3.40490723e+00  3.41442375e+00  3.43731392e+00
  3.46057533e+00  3.46694300e+00  3.47251167e+00  3.48619033e+00
  3.48942248e+00  3.53734273e+00  3.54131711e+00  3.54559891e+00
  3.55559291e+00  3.57661997e+00  3.59257733e+00  3.59717024e+00
  3.60553868e+00  3.62576436e+00  3.63012187e+00  3.64632554e+00
  3.65935096e+00  3.67546587e+00  3.68211561e+00  3.69174562e+00
  3.69489357e+00  3.71346421e+00  3.72007935e+00  3.73335044e+00
  3.74970432e+00  3.75218854e+00  3.77615544e+00  3.78640899e+00
  3.79104066e+00  3.80296790e+00  3.80765428e+00  3.82649061e+00
  3.85927780e+00  3.86977932e+00  3.87370415e+00  3.91248216e+00
  3.94633442e+00  3.97308464e+00  3.98580473e+00  3.98846747e+00
  4.04265195e+00  4.05977142e+00  4.07219730e+00  4.09169217e+00
  4.11349367e+00  4.13063627e+00  4.16216929e+00  4.17757056e+00
  4.23359394e+00  4.25560011e+00  4.26712284e+00  4.29871828e+00
  4.31502136e+00  4.32572880e+00  4.35016428e+00  4.40274114e+00
  4.40937857e+00  4.42298452e+00  4.44354106e+00  4.45865572e+00
  4.52580338e+00  4.53305912e+00  4.53825096e+00  4.65305034e+00
  4.67343122e+00  4.69986090e+00  4.72359196e+00  4.75832146e+00
  4.79869885e+00  4.84345657e+00  4.85474383e+00  4.96041749e+00
  5.03310580e+00  5.06921075e+00  5.10492026e+00  5.15665299e+00
  5.20460201e+00  5.34141814e+00  5.34515348e+00  5.41425451e+00
  5.45368711e+00  5.51504519e+00  5.51669122e+00  5.54682112e+00
  5.59009794e+00  5.61658448e+00  5.62948057e+00  5.69939533e+00
  5.76989610e+00  5.77898950e+00  5.86284208e+00  5.89615714e+00
  6.00096788e+00  6.01108985e+00  6.10612099e+00  6.12964277e+00
  6.13738667e+00  6.15740739e+00  6.21794685e+00  6.22397371e+00
  6.30475446e+00  6.40545578e+00  6.46167570e+00  6.48230636e+00
  6.50908433e+00  6.60926679e+00  6.66245307e+00  6.73904687e+00
  6.81979382e+00  6.88014158e+00  6.91722127e+00  6.99420884e+00
  7.02152699e+00  7.05867213e+00  7.12846791e+00  7.22803459e+00
  7.24632742e+00  7.31864099e+00  7.36362404e+00  7.38457150e+00
  7.44481284e+00  7.49455060e+00  7.54322866e+00  7.55258761e+00
  7.77082162e+00  7.78058334e+00  7.96087583e+00  8.02728756e+00
  8.12082478e+00  8.46822333e+00  1.13600923e+01  1.32022328e+01
  1.34252258e+01  1.41674513e+01  1.59763026e+01  1.76216784e+01]
    CPU time for vj and vk   3778.84 sec, wall time    118.43 sec
E1 = -2877.4817518092627  E_coul = 1247.3361193461649
Extra cycle  E= -578.967924605467  delta_E= -1.05e-09  |g|= 1.6e-05  |ddm|= 0.00023
    CPU time for scf_cycle 251382.18 sec, wall time   7900.25 sec
    CPU time for SCF 251382.19 sec, wall time   7900.25 sec
converged SCF energy = -578.967924605467
