#INFO: **** input file is /burg/ccce/users/eav2136/projects/batteries/01_mp2/hf_script.py ****
#!/usr/bin/env python3
from pyscf import gto, scf, mp
import sys
from fileutils import dump
import h5py

mol = gto.Mole()
mol.verbose = 10
mol.atom = f"geom_{sys.argv[1]}.xyz"
mol.basis = "ccpvtz"
mol.unit = "ANG"
mol.build()

mf = scf.RHF(mol)
# determine the output of mf.kernel()
mf.kernel()

conv = mf.converged
e_tot = mf.e_tot
mo_energy = mf.mo_energy
mo_coeff = mf.mo_coeff

dataout = {}
dataout["e_tot"] = e_tot
dataout["conv"] = conv
dump(dataout, f"data/hf_geom_{sys.argv[1]}.json")

with h5py.File(f"data/hf_geom_{sys.argv[1]}.h5", "w") as f:
    f.create_dataset("mo_energy", data=mo_energy)
    f.create_dataset("mo_coeff", data=mo_coeff)#INFO: ******************** input file end ********************


System: uname_result(system='Linux', node='g108', release='4.18.0-193.el8.x86_64', version='#1 SMP Fri Mar 27 14:35:58 UTC 2020', machine='x86_64')  Threads 32
Python 3.10.12 (main, Jul 29 2023, 11:27:27) [GCC 13.2.0]
numpy 1.25.1  scipy 1.10.1
Date: Fri Jan 19 11:55:07 2024
PySCF version 2.0.1
PySCF path  /burg/berkelbach/users/eav2136/builds/pyscf/projected-cvs/pyscf
GIT ORIG_HEAD 0bfbc692adf3ea63b8a509210433219cd1c472a2
GIT HEAD (branch projected-cvs) e14caaa2dddc538b9be2d86f01e5b456fc92da36

[ENV] PYSCF_TMPDIR /burg/ccce/users/eav2136/projects/batteries/01_mp2/tmp
[ENV] PYSCF_MAX_MEMORY 700000
[CONFIG] DEBUG = False
[CONFIG] MAX_MEMORY = 700000
[CONFIG] TMPDIR = /burg/ccce/users/eav2136/projects/batteries/01_mp2/tmp
[CONFIG] UNIT = angstrom
[CONFIG] VERBOSE = 3
[CONFIG] conf_file = None
[INPUT] verbose = 10
[INPUT] max_memory = 700000 
[INPUT] num. atoms = 44
[INPUT] num. electrons = 148
[INPUT] charge = 0
[INPUT] spin (= nelec alpha-beta = 2S) = 0
[INPUT] symmetry False subgroup None
[INPUT] Mole.unit = ANG
[INPUT]  1 C      4.889700000000   4.599650000000  10.258310000000 AA    9.240193831286   8.692078768856  19.385396400887 Bohr
[INPUT]  2 O      4.870170000000   4.245790000000   8.952570000000 AA    9.203287480073   8.023380282417  16.917905410997 Bohr
[INPUT]  3 C      5.310840000000   5.193710000000   8.233300000000 AA   10.036033091385   9.814689470415  15.558682101382 Bohr
[INPUT]  4 O      5.765780000000   6.111200000000   8.982240000000 AA   10.895745094495  11.548494292442  16.973973585113 Bohr
[INPUT]  5 C      5.774150000000   5.702340000000  10.272330000000 AA   10.911562102157  10.775860869152  19.411890361153 Bohr
[INPUT]  6 O      5.299720000000   5.216150000000   7.112960000000 AA   10.015019336880   9.857094924650  13.441546334986 Bohr
[INPUT]  7 H      5.212360000000   3.798320000000  10.814180000000 AA    9.849932862638   7.177784533458  20.435838461749 Bohr
[INPUT]  8 H      3.953110000000   4.871240000000  10.548100000000 AA    7.470295240279   9.205309487026  19.933020134525 Bohr
[INPUT]  9 H      5.464720000000   6.479910000000  10.867980000000 AA   10.326824147433  12.245255211830  20.537505727251 Bohr
[INPUT] 10 H      6.716790000000   5.418990000000  10.529430000000 AA   12.692893536217  10.240406971757  19.897738947779 Bohr
[INPUT] 11 Li     5.263950000000   5.263950000000   5.263950000000 AA    9.947423833404   9.947423833404   9.947423833404 Bohr
[INPUT] 12 Li     5.263950000000   1.754650000000   5.263950000000 AA    9.947423833404   3.315807944468   9.947423833404 Bohr
[INPUT] 13 Li     8.773250000000   5.263950000000   5.263950000000 AA   16.579039722340   9.947423833404   9.947423833404 Bohr
[INPUT] 14 Li     1.754650000000   5.263950000000   5.263950000000 AA    3.315807944468   9.947423833404   9.947423833404 Bohr
[INPUT] 15 Li     5.263950000000   8.773250000000   5.263950000000 AA    9.947423833404  16.579039722340   9.947423833404 Bohr
[INPUT] 16 Li     7.018600000000   3.509300000000   3.509300000000 AA   13.263231777872   6.631615888936   6.631615888936 Bohr
[INPUT] 17 Li     3.509300000000   3.509300000000   3.509300000000 AA    6.631615888936   6.631615888936   6.631615888936 Bohr
[INPUT] 18 Li     7.018600000000   7.018600000000   3.509300000000 AA   13.263231777872  13.263231777872   6.631615888936 Bohr
[INPUT] 19 Li     3.509300000000   7.018600000000   3.509300000000 AA    6.631615888936  13.263231777872   6.631615888936 Bohr
[INPUT] 20 Li     8.773250000000   1.754650000000   5.263950000000 AA   16.579039722340   3.315807944468   9.947423833404 Bohr
[INPUT] 21 Li     1.754650000000   1.754650000000   5.263950000000 AA    3.315807944468   3.315807944468   9.947423833404 Bohr
[INPUT] 22 Li     8.773250000000   8.773250000000   5.263950000000 AA   16.579039722340  16.579039722340   9.947423833404 Bohr
[INPUT] 23 Li     1.754650000000   8.773250000000   5.263950000000 AA    3.315807944468  16.579039722340   9.947423833404 Bohr
[INPUT] 24 Li     5.263950000000   5.263950000000   1.754650000000 AA    9.947423833404   9.947423833404   3.315807944468 Bohr
[INPUT] 25 Li     5.263950000000   1.754650000000   1.754650000000 AA    9.947423833404   3.315807944468   3.315807944468 Bohr
[INPUT] 26 Li     8.773250000000   5.263950000000   1.754650000000 AA   16.579039722340   9.947423833404   3.315807944468 Bohr
[INPUT] 27 Li     1.754650000000   5.263950000000   1.754650000000 AA    3.315807944468   9.947423833404   3.315807944468 Bohr
[INPUT] 28 Li     5.263950000000   8.773250000000   1.754650000000 AA    9.947423833404  16.579039722340   3.315807944468 Bohr
[INPUT] 29 Li     7.018600000000   0.000000000000   3.509300000000 AA   13.263231777872   0.000000000000   6.631615888936 Bohr
[INPUT] 30 Li     3.509300000000   0.000000000000   3.509300000000 AA    6.631615888936   0.000000000000   6.631615888936 Bohr
[INPUT] 31 Li     0.000000000000   3.509300000000   3.509300000000 AA    0.000000000000   6.631615888936   6.631615888936 Bohr
[INPUT] 32 Li     0.000000000000   7.018600000000   3.509300000000 AA    0.000000000000  13.263231777872   6.631615888936 Bohr
[INPUT] 33 Li     8.773250000000   1.754650000000   1.754650000000 AA   16.579039722340   3.315807944468   3.315807944468 Bohr
[INPUT] 34 Li     1.754650000000   1.754650000000   1.754650000000 AA    3.315807944468   3.315807944468   3.315807944468 Bohr
[INPUT] 35 Li     8.773250000000   8.773250000000   1.754650000000 AA   16.579039722340  16.579039722340   3.315807944468 Bohr
[INPUT] 36 Li     1.754650000000   8.773250000000   1.754650000000 AA    3.315807944468  16.579039722340   3.315807944468 Bohr
[INPUT] 37 Li     7.018600000000   3.509300000000   0.000000000000 AA   13.263231777872   6.631615888936   0.000000000000 Bohr
[INPUT] 38 Li     3.509300000000   3.509300000000   0.000000000000 AA    6.631615888936   6.631615888936   0.000000000000 Bohr
[INPUT] 39 Li     7.018600000000   7.018600000000   0.000000000000 AA   13.263231777872  13.263231777872   0.000000000000 Bohr
[INPUT] 40 Li     3.509300000000   7.018600000000   0.000000000000 AA    6.631615888936  13.263231777872   0.000000000000 Bohr
[INPUT] 41 Li     0.000000000000   0.000000000000   3.509300000000 AA    0.000000000000   0.000000000000   6.631615888936 Bohr
[INPUT] 42 Li     7.018600000000   0.000000000000   0.000000000000 AA   13.263231777872   0.000000000000   0.000000000000 Bohr
[INPUT] 43 Li     3.509300000000   0.000000000000   0.000000000000 AA    6.631615888936   0.000000000000   0.000000000000 Bohr
[INPUT] 44 Li     0.000000000000   3.509300000000   0.000000000000 AA    0.000000000000   6.631615888936   0.000000000000 Bohr
[INPUT] ---------------- BASIS SET ---------------- 
[INPUT] l, kappa, [nprim/nctr], expnt,             c_1 c_2 ...
[INPUT] C
[INPUT] 0    0    [8    /2   ]  8236              0.000531 -0.000113
                                1235              0.004108 -0.000878
                                280.8             0.021087 -0.00454
                                79.27             0.081853 -0.018133
                                25.59             0.234817 -0.05576
                                8.997             0.434401 -0.126895
                                3.319             0.346129 -0.170352
                                0.3643            -0.008983 0.598684
[INPUT] 0    0    [1    /1   ]  0.9059               1
[INPUT] 0    0    [1    /1   ]  0.1285               1
[INPUT] 1    0    [3    /1   ]  18.71             0.014031
                                4.133             0.086866
                                1.2               0.290216
[INPUT] 1    0    [1    /1   ]  0.3827               1
[INPUT] 1    0    [1    /1   ]  0.1209               1
[INPUT] 2    0    [1    /1   ]  1.097                1
[INPUT] 2    0    [1    /1   ]  0.318                1
[INPUT] 3    0    [1    /1   ]  0.761                1
[INPUT] Li
[INPUT] 0    0    [9    /2   ]  5988              0.000133 -2.1e-05
                                898.9             0.001025 -0.000161
                                205.9             0.005272 -0.00082
                                59.24             0.020929 -0.003326
                                19.87             0.06634 -0.010519
                                7.406             0.165775 -0.028097
                                2.93              0.315038 -0.055936
                                1.189             0.393523 -0.099237
                                0.4798            0.19087 -0.112189
[INPUT] 0    0    [1    /1   ]  0.07509              1
[INPUT] 0    0    [1    /1   ]  0.02832              1
[INPUT] 1    0    [3    /1   ]  3.266             0.00863
                                0.6511            0.047538
                                0.1696            0.209772
[INPUT] 1    0    [1    /1   ]  0.05578              1
[INPUT] 1    0    [1    /1   ]  0.0205               1
[INPUT] 2    0    [1    /1   ]  0.1874               1
[INPUT] 2    0    [1    /1   ]  0.0801               1
[INPUT] 3    0    [1    /1   ]  0.1829               1
[INPUT] O
[INPUT] 0    0    [8    /2   ]  15330             0.000508 -0.000115
                                2299              0.003929 -0.000895
                                522.4             0.020243 -0.004636
                                147.3             0.079181 -0.018724
                                47.55             0.230687 -0.058463
                                16.76             0.433118 -0.136463
                                6.207             0.35026 -0.17574
                                0.6882            -0.008154 0.603418
[INPUT] 0    0    [1    /1   ]  1.752                1
[INPUT] 0    0    [1    /1   ]  0.2384               1
[INPUT] 1    0    [3    /1   ]  34.46             0.015928
                                7.749             0.09974
                                2.28              0.310492
[INPUT] 1    0    [1    /1   ]  0.7156               1
[INPUT] 1    0    [1    /1   ]  0.214                1
[INPUT] 2    0    [1    /1   ]  2.314                1
[INPUT] 2    0    [1    /1   ]  0.645                1
[INPUT] 3    0    [1    /1   ]  1.428                1
[INPUT] H
[INPUT] 0    0    [3    /1   ]  33.87             0.006068
                                5.095             0.045308
                                1.159             0.202822
[INPUT] 0    0    [1    /1   ]  0.3258               1
[INPUT] 0    0    [1    /1   ]  0.1027               1
[INPUT] 1    0    [1    /1   ]  1.407                1
[INPUT] 1    0    [1    /1   ]  0.388                1
[INPUT] 2    0    [1    /1   ]  1.057                1

nuclear repulsion = 1116.35907824144
number of shells = 384
number of NR pGTOs = 1778
number of NR cGTOs = 1256
basis = ccpvtz
ecp = {}
bas 0, expnt(s) = [8.236e+03 1.235e+03 2.808e+02 7.927e+01 2.559e+01 8.997e+00 3.319e+00
 3.643e-01]
bas 1, expnt(s) = [0.9059]
bas 2, expnt(s) = [0.1285]
bas 3, expnt(s) = [18.71   4.133  1.2  ]
bas 4, expnt(s) = [0.3827]
bas 5, expnt(s) = [0.1209]
bas 6, expnt(s) = [1.097]
bas 7, expnt(s) = [0.318]
bas 8, expnt(s) = [0.761]
bas 9, expnt(s) = [1.533e+04 2.299e+03 5.224e+02 1.473e+02 4.755e+01 1.676e+01 6.207e+00
 6.882e-01]
bas 10, expnt(s) = [1.752]
bas 11, expnt(s) = [0.2384]
bas 12, expnt(s) = [34.46   7.749  2.28 ]
bas 13, expnt(s) = [0.7156]
bas 14, expnt(s) = [0.214]
bas 15, expnt(s) = [2.314]
bas 16, expnt(s) = [0.645]
bas 17, expnt(s) = [1.428]
bas 18, expnt(s) = [8.236e+03 1.235e+03 2.808e+02 7.927e+01 2.559e+01 8.997e+00 3.319e+00
 3.643e-01]
bas 19, expnt(s) = [0.9059]
bas 20, expnt(s) = [0.1285]
bas 21, expnt(s) = [18.71   4.133  1.2  ]
bas 22, expnt(s) = [0.3827]
bas 23, expnt(s) = [0.1209]
bas 24, expnt(s) = [1.097]
bas 25, expnt(s) = [0.318]
bas 26, expnt(s) = [0.761]
bas 27, expnt(s) = [1.533e+04 2.299e+03 5.224e+02 1.473e+02 4.755e+01 1.676e+01 6.207e+00
 6.882e-01]
bas 28, expnt(s) = [1.752]
bas 29, expnt(s) = [0.2384]
bas 30, expnt(s) = [34.46   7.749  2.28 ]
bas 31, expnt(s) = [0.7156]
bas 32, expnt(s) = [0.214]
bas 33, expnt(s) = [2.314]
bas 34, expnt(s) = [0.645]
bas 35, expnt(s) = [1.428]
bas 36, expnt(s) = [8.236e+03 1.235e+03 2.808e+02 7.927e+01 2.559e+01 8.997e+00 3.319e+00
 3.643e-01]
bas 37, expnt(s) = [0.9059]
bas 38, expnt(s) = [0.1285]
bas 39, expnt(s) = [18.71   4.133  1.2  ]
bas 40, expnt(s) = [0.3827]
bas 41, expnt(s) = [0.1209]
bas 42, expnt(s) = [1.097]
bas 43, expnt(s) = [0.318]
bas 44, expnt(s) = [0.761]
bas 45, expnt(s) = [1.533e+04 2.299e+03 5.224e+02 1.473e+02 4.755e+01 1.676e+01 6.207e+00
 6.882e-01]
bas 46, expnt(s) = [1.752]
bas 47, expnt(s) = [0.2384]
bas 48, expnt(s) = [34.46   7.749  2.28 ]
bas 49, expnt(s) = [0.7156]
bas 50, expnt(s) = [0.214]
bas 51, expnt(s) = [2.314]
bas 52, expnt(s) = [0.645]
bas 53, expnt(s) = [1.428]
bas 54, expnt(s) = [33.87   5.095  1.159]
bas 55, expnt(s) = [0.3258]
bas 56, expnt(s) = [0.1027]
bas 57, expnt(s) = [1.407]
bas 58, expnt(s) = [0.388]
bas 59, expnt(s) = [1.057]
bas 60, expnt(s) = [33.87   5.095  1.159]
bas 61, expnt(s) = [0.3258]
bas 62, expnt(s) = [0.1027]
bas 63, expnt(s) = [1.407]
bas 64, expnt(s) = [0.388]
bas 65, expnt(s) = [1.057]
bas 66, expnt(s) = [33.87   5.095  1.159]
bas 67, expnt(s) = [0.3258]
bas 68, expnt(s) = [0.1027]
bas 69, expnt(s) = [1.407]
bas 70, expnt(s) = [0.388]
bas 71, expnt(s) = [1.057]
bas 72, expnt(s) = [33.87   5.095  1.159]
bas 73, expnt(s) = [0.3258]
bas 74, expnt(s) = [0.1027]
bas 75, expnt(s) = [1.407]
bas 76, expnt(s) = [0.388]
bas 77, expnt(s) = [1.057]
bas 78, expnt(s) = [5.988e+03 8.989e+02 2.059e+02 5.924e+01 1.987e+01 7.406e+00 2.930e+00
 1.189e+00 4.798e-01]
bas 79, expnt(s) = [0.07509]
bas 80, expnt(s) = [0.02832]
bas 81, expnt(s) = [3.266  0.6511 0.1696]
bas 82, expnt(s) = [0.05578]
bas 83, expnt(s) = [0.0205]
bas 84, expnt(s) = [0.1874]
bas 85, expnt(s) = [0.0801]
bas 86, expnt(s) = [0.1829]
bas 87, expnt(s) = [5.988e+03 8.989e+02 2.059e+02 5.924e+01 1.987e+01 7.406e+00 2.930e+00
 1.189e+00 4.798e-01]
bas 88, expnt(s) = [0.07509]
bas 89, expnt(s) = [0.02832]
bas 90, expnt(s) = [3.266  0.6511 0.1696]
bas 91, expnt(s) = [0.05578]
bas 92, expnt(s) = [0.0205]
bas 93, expnt(s) = [0.1874]
bas 94, expnt(s) = [0.0801]
bas 95, expnt(s) = [0.1829]
bas 96, expnt(s) = [5.988e+03 8.989e+02 2.059e+02 5.924e+01 1.987e+01 7.406e+00 2.930e+00
 1.189e+00 4.798e-01]
bas 97, expnt(s) = [0.07509]
bas 98, expnt(s) = [0.02832]
bas 99, expnt(s) = [3.266  0.6511 0.1696]
bas 100, expnt(s) = [0.05578]
bas 101, expnt(s) = [0.0205]
bas 102, expnt(s) = [0.1874]
bas 103, expnt(s) = [0.0801]
bas 104, expnt(s) = [0.1829]
bas 105, expnt(s) = [5.988e+03 8.989e+02 2.059e+02 5.924e+01 1.987e+01 7.406e+00 2.930e+00
 1.189e+00 4.798e-01]
bas 106, expnt(s) = [0.07509]
bas 107, expnt(s) = [0.02832]
bas 108, expnt(s) = [3.266  0.6511 0.1696]
bas 109, expnt(s) = [0.05578]
bas 110, expnt(s) = [0.0205]
bas 111, expnt(s) = [0.1874]
bas 112, expnt(s) = [0.0801]
bas 113, expnt(s) = [0.1829]
bas 114, expnt(s) = [5.988e+03 8.989e+02 2.059e+02 5.924e+01 1.987e+01 7.406e+00 2.930e+00
 1.189e+00 4.798e-01]
bas 115, expnt(s) = [0.07509]
bas 116, expnt(s) = [0.02832]
bas 117, expnt(s) = [3.266  0.6511 0.1696]
bas 118, expnt(s) = [0.05578]
bas 119, expnt(s) = [0.0205]
bas 120, expnt(s) = [0.1874]
bas 121, expnt(s) = [0.0801]
bas 122, expnt(s) = [0.1829]
bas 123, expnt(s) = [5.988e+03 8.989e+02 2.059e+02 5.924e+01 1.987e+01 7.406e+00 2.930e+00
 1.189e+00 4.798e-01]
bas 124, expnt(s) = [0.07509]
bas 125, expnt(s) = [0.02832]
bas 126, expnt(s) = [3.266  0.6511 0.1696]
bas 127, expnt(s) = [0.05578]
bas 128, expnt(s) = [0.0205]
bas 129, expnt(s) = [0.1874]
bas 130, expnt(s) = [0.0801]
bas 131, expnt(s) = [0.1829]
bas 132, expnt(s) = [5.988e+03 8.989e+02 2.059e+02 5.924e+01 1.987e+01 7.406e+00 2.930e+00
 1.189e+00 4.798e-01]
bas 133, expnt(s) = [0.07509]
bas 134, expnt(s) = [0.02832]
bas 135, expnt(s) = [3.266  0.6511 0.1696]
bas 136, expnt(s) = [0.05578]
bas 137, expnt(s) = [0.0205]
bas 138, expnt(s) = [0.1874]
bas 139, expnt(s) = [0.0801]
bas 140, expnt(s) = [0.1829]
bas 141, expnt(s) = [5.988e+03 8.989e+02 2.059e+02 5.924e+01 1.987e+01 7.406e+00 2.930e+00
 1.189e+00 4.798e-01]
bas 142, expnt(s) = [0.07509]
bas 143, expnt(s) = [0.02832]
bas 144, expnt(s) = [3.266  0.6511 0.1696]
bas 145, expnt(s) = [0.05578]
bas 146, expnt(s) = [0.0205]
bas 147, expnt(s) = [0.1874]
bas 148, expnt(s) = [0.0801]
bas 149, expnt(s) = [0.1829]
bas 150, expnt(s) = [5.988e+03 8.989e+02 2.059e+02 5.924e+01 1.987e+01 7.406e+00 2.930e+00
 1.189e+00 4.798e-01]
bas 151, expnt(s) = [0.07509]
bas 152, expnt(s) = [0.02832]
bas 153, expnt(s) = [3.266  0.6511 0.1696]
bas 154, expnt(s) = [0.05578]
bas 155, expnt(s) = [0.0205]
bas 156, expnt(s) = [0.1874]
bas 157, expnt(s) = [0.0801]
bas 158, expnt(s) = [0.1829]
bas 159, expnt(s) = [5.988e+03 8.989e+02 2.059e+02 5.924e+01 1.987e+01 7.406e+00 2.930e+00
 1.189e+00 4.798e-01]
bas 160, expnt(s) = [0.07509]
bas 161, expnt(s) = [0.02832]
bas 162, expnt(s) = [3.266  0.6511 0.1696]
bas 163, expnt(s) = [0.05578]
bas 164, expnt(s) = [0.0205]
bas 165, expnt(s) = [0.1874]
bas 166, expnt(s) = [0.0801]
bas 167, expnt(s) = [0.1829]
bas 168, expnt(s) = [5.988e+03 8.989e+02 2.059e+02 5.924e+01 1.987e+01 7.406e+00 2.930e+00
 1.189e+00 4.798e-01]
bas 169, expnt(s) = [0.07509]
bas 170, expnt(s) = [0.02832]
bas 171, expnt(s) = [3.266  0.6511 0.1696]
bas 172, expnt(s) = [0.05578]
bas 173, expnt(s) = [0.0205]
bas 174, expnt(s) = [0.1874]
bas 175, expnt(s) = [0.0801]
bas 176, expnt(s) = [0.1829]
bas 177, expnt(s) = [5.988e+03 8.989e+02 2.059e+02 5.924e+01 1.987e+01 7.406e+00 2.930e+00
 1.189e+00 4.798e-01]
bas 178, expnt(s) = [0.07509]
bas 179, expnt(s) = [0.02832]
bas 180, expnt(s) = [3.266  0.6511 0.1696]
bas 181, expnt(s) = [0.05578]
bas 182, expnt(s) = [0.0205]
bas 183, expnt(s) = [0.1874]
bas 184, expnt(s) = [0.0801]
bas 185, expnt(s) = [0.1829]
bas 186, expnt(s) = [5.988e+03 8.989e+02 2.059e+02 5.924e+01 1.987e+01 7.406e+00 2.930e+00
 1.189e+00 4.798e-01]
bas 187, expnt(s) = [0.07509]
bas 188, expnt(s) = [0.02832]
bas 189, expnt(s) = [3.266  0.6511 0.1696]
bas 190, expnt(s) = [0.05578]
bas 191, expnt(s) = [0.0205]
bas 192, expnt(s) = [0.1874]
bas 193, expnt(s) = [0.0801]
bas 194, expnt(s) = [0.1829]
bas 195, expnt(s) = [5.988e+03 8.989e+02 2.059e+02 5.924e+01 1.987e+01 7.406e+00 2.930e+00
 1.189e+00 4.798e-01]
bas 196, expnt(s) = [0.07509]
bas 197, expnt(s) = [0.02832]
bas 198, expnt(s) = [3.266  0.6511 0.1696]
bas 199, expnt(s) = [0.05578]
bas 200, expnt(s) = [0.0205]
bas 201, expnt(s) = [0.1874]
bas 202, expnt(s) = [0.0801]
bas 203, expnt(s) = [0.1829]
bas 204, expnt(s) = [5.988e+03 8.989e+02 2.059e+02 5.924e+01 1.987e+01 7.406e+00 2.930e+00
 1.189e+00 4.798e-01]
bas 205, expnt(s) = [0.07509]
bas 206, expnt(s) = [0.02832]
bas 207, expnt(s) = [3.266  0.6511 0.1696]
bas 208, expnt(s) = [0.05578]
bas 209, expnt(s) = [0.0205]
bas 210, expnt(s) = [0.1874]
bas 211, expnt(s) = [0.0801]
bas 212, expnt(s) = [0.1829]
bas 213, expnt(s) = [5.988e+03 8.989e+02 2.059e+02 5.924e+01 1.987e+01 7.406e+00 2.930e+00
 1.189e+00 4.798e-01]
bas 214, expnt(s) = [0.07509]
bas 215, expnt(s) = [0.02832]
bas 216, expnt(s) = [3.266  0.6511 0.1696]
bas 217, expnt(s) = [0.05578]
bas 218, expnt(s) = [0.0205]
bas 219, expnt(s) = [0.1874]
bas 220, expnt(s) = [0.0801]
bas 221, expnt(s) = [0.1829]
bas 222, expnt(s) = [5.988e+03 8.989e+02 2.059e+02 5.924e+01 1.987e+01 7.406e+00 2.930e+00
 1.189e+00 4.798e-01]
bas 223, expnt(s) = [0.07509]
bas 224, expnt(s) = [0.02832]
bas 225, expnt(s) = [3.266  0.6511 0.1696]
bas 226, expnt(s) = [0.05578]
bas 227, expnt(s) = [0.0205]
bas 228, expnt(s) = [0.1874]
bas 229, expnt(s) = [0.0801]
bas 230, expnt(s) = [0.1829]
bas 231, expnt(s) = [5.988e+03 8.989e+02 2.059e+02 5.924e+01 1.987e+01 7.406e+00 2.930e+00
 1.189e+00 4.798e-01]
bas 232, expnt(s) = [0.07509]
bas 233, expnt(s) = [0.02832]
bas 234, expnt(s) = [3.266  0.6511 0.1696]
bas 235, expnt(s) = [0.05578]
bas 236, expnt(s) = [0.0205]
bas 237, expnt(s) = [0.1874]
bas 238, expnt(s) = [0.0801]
bas 239, expnt(s) = [0.1829]
bas 240, expnt(s) = [5.988e+03 8.989e+02 2.059e+02 5.924e+01 1.987e+01 7.406e+00 2.930e+00
 1.189e+00 4.798e-01]
bas 241, expnt(s) = [0.07509]
bas 242, expnt(s) = [0.02832]
bas 243, expnt(s) = [3.266  0.6511 0.1696]
bas 244, expnt(s) = [0.05578]
bas 245, expnt(s) = [0.0205]
bas 246, expnt(s) = [0.1874]
bas 247, expnt(s) = [0.0801]
bas 248, expnt(s) = [0.1829]
bas 249, expnt(s) = [5.988e+03 8.989e+02 2.059e+02 5.924e+01 1.987e+01 7.406e+00 2.930e+00
 1.189e+00 4.798e-01]
bas 250, expnt(s) = [0.07509]
bas 251, expnt(s) = [0.02832]
bas 252, expnt(s) = [3.266  0.6511 0.1696]
bas 253, expnt(s) = [0.05578]
bas 254, expnt(s) = [0.0205]
bas 255, expnt(s) = [0.1874]
bas 256, expnt(s) = [0.0801]
bas 257, expnt(s) = [0.1829]
bas 258, expnt(s) = [5.988e+03 8.989e+02 2.059e+02 5.924e+01 1.987e+01 7.406e+00 2.930e+00
 1.189e+00 4.798e-01]
bas 259, expnt(s) = [0.07509]
bas 260, expnt(s) = [0.02832]
bas 261, expnt(s) = [3.266  0.6511 0.1696]
bas 262, expnt(s) = [0.05578]
bas 263, expnt(s) = [0.0205]
bas 264, expnt(s) = [0.1874]
bas 265, expnt(s) = [0.0801]
bas 266, expnt(s) = [0.1829]
bas 267, expnt(s) = [5.988e+03 8.989e+02 2.059e+02 5.924e+01 1.987e+01 7.406e+00 2.930e+00
 1.189e+00 4.798e-01]
bas 268, expnt(s) = [0.07509]
bas 269, expnt(s) = [0.02832]
bas 270, expnt(s) = [3.266  0.6511 0.1696]
bas 271, expnt(s) = [0.05578]
bas 272, expnt(s) = [0.0205]
bas 273, expnt(s) = [0.1874]
bas 274, expnt(s) = [0.0801]
bas 275, expnt(s) = [0.1829]
bas 276, expnt(s) = [5.988e+03 8.989e+02 2.059e+02 5.924e+01 1.987e+01 7.406e+00 2.930e+00
 1.189e+00 4.798e-01]
bas 277, expnt(s) = [0.07509]
bas 278, expnt(s) = [0.02832]
bas 279, expnt(s) = [3.266  0.6511 0.1696]
bas 280, expnt(s) = [0.05578]
bas 281, expnt(s) = [0.0205]
bas 282, expnt(s) = [0.1874]
bas 283, expnt(s) = [0.0801]
bas 284, expnt(s) = [0.1829]
bas 285, expnt(s) = [5.988e+03 8.989e+02 2.059e+02 5.924e+01 1.987e+01 7.406e+00 2.930e+00
 1.189e+00 4.798e-01]
bas 286, expnt(s) = [0.07509]
bas 287, expnt(s) = [0.02832]
bas 288, expnt(s) = [3.266  0.6511 0.1696]
bas 289, expnt(s) = [0.05578]
bas 290, expnt(s) = [0.0205]
bas 291, expnt(s) = [0.1874]
bas 292, expnt(s) = [0.0801]
bas 293, expnt(s) = [0.1829]
bas 294, expnt(s) = [5.988e+03 8.989e+02 2.059e+02 5.924e+01 1.987e+01 7.406e+00 2.930e+00
 1.189e+00 4.798e-01]
bas 295, expnt(s) = [0.07509]
bas 296, expnt(s) = [0.02832]
bas 297, expnt(s) = [3.266  0.6511 0.1696]
bas 298, expnt(s) = [0.05578]
bas 299, expnt(s) = [0.0205]
bas 300, expnt(s) = [0.1874]
bas 301, expnt(s) = [0.0801]
bas 302, expnt(s) = [0.1829]
bas 303, expnt(s) = [5.988e+03 8.989e+02 2.059e+02 5.924e+01 1.987e+01 7.406e+00 2.930e+00
 1.189e+00 4.798e-01]
bas 304, expnt(s) = [0.07509]
bas 305, expnt(s) = [0.02832]
bas 306, expnt(s) = [3.266  0.6511 0.1696]
bas 307, expnt(s) = [0.05578]
bas 308, expnt(s) = [0.0205]
bas 309, expnt(s) = [0.1874]
bas 310, expnt(s) = [0.0801]
bas 311, expnt(s) = [0.1829]
bas 312, expnt(s) = [5.988e+03 8.989e+02 2.059e+02 5.924e+01 1.987e+01 7.406e+00 2.930e+00
 1.189e+00 4.798e-01]
bas 313, expnt(s) = [0.07509]
bas 314, expnt(s) = [0.02832]
bas 315, expnt(s) = [3.266  0.6511 0.1696]
bas 316, expnt(s) = [0.05578]
bas 317, expnt(s) = [0.0205]
bas 318, expnt(s) = [0.1874]
bas 319, expnt(s) = [0.0801]
bas 320, expnt(s) = [0.1829]
bas 321, expnt(s) = [5.988e+03 8.989e+02 2.059e+02 5.924e+01 1.987e+01 7.406e+00 2.930e+00
 1.189e+00 4.798e-01]
bas 322, expnt(s) = [0.07509]
bas 323, expnt(s) = [0.02832]
bas 324, expnt(s) = [3.266  0.6511 0.1696]
bas 325, expnt(s) = [0.05578]
bas 326, expnt(s) = [0.0205]
bas 327, expnt(s) = [0.1874]
bas 328, expnt(s) = [0.0801]
bas 329, expnt(s) = [0.1829]
bas 330, expnt(s) = [5.988e+03 8.989e+02 2.059e+02 5.924e+01 1.987e+01 7.406e+00 2.930e+00
 1.189e+00 4.798e-01]
bas 331, expnt(s) = [0.07509]
bas 332, expnt(s) = [0.02832]
bas 333, expnt(s) = [3.266  0.6511 0.1696]
bas 334, expnt(s) = [0.05578]
bas 335, expnt(s) = [0.0205]
bas 336, expnt(s) = [0.1874]
bas 337, expnt(s) = [0.0801]
bas 338, expnt(s) = [0.1829]
bas 339, expnt(s) = [5.988e+03 8.989e+02 2.059e+02 5.924e+01 1.987e+01 7.406e+00 2.930e+00
 1.189e+00 4.798e-01]
bas 340, expnt(s) = [0.07509]
bas 341, expnt(s) = [0.02832]
bas 342, expnt(s) = [3.266  0.6511 0.1696]
bas 343, expnt(s) = [0.05578]
bas 344, expnt(s) = [0.0205]
bas 345, expnt(s) = [0.1874]
bas 346, expnt(s) = [0.0801]
bas 347, expnt(s) = [0.1829]
bas 348, expnt(s) = [5.988e+03 8.989e+02 2.059e+02 5.924e+01 1.987e+01 7.406e+00 2.930e+00
 1.189e+00 4.798e-01]
bas 349, expnt(s) = [0.07509]
bas 350, expnt(s) = [0.02832]
bas 351, expnt(s) = [3.266  0.6511 0.1696]
bas 352, expnt(s) = [0.05578]
bas 353, expnt(s) = [0.0205]
bas 354, expnt(s) = [0.1874]
bas 355, expnt(s) = [0.0801]
bas 356, expnt(s) = [0.1829]
bas 357, expnt(s) = [5.988e+03 8.989e+02 2.059e+02 5.924e+01 1.987e+01 7.406e+00 2.930e+00
 1.189e+00 4.798e-01]
bas 358, expnt(s) = [0.07509]
bas 359, expnt(s) = [0.02832]
bas 360, expnt(s) = [3.266  0.6511 0.1696]
bas 361, expnt(s) = [0.05578]
bas 362, expnt(s) = [0.0205]
bas 363, expnt(s) = [0.1874]
bas 364, expnt(s) = [0.0801]
bas 365, expnt(s) = [0.1829]
bas 366, expnt(s) = [5.988e+03 8.989e+02 2.059e+02 5.924e+01 1.987e+01 7.406e+00 2.930e+00
 1.189e+00 4.798e-01]
bas 367, expnt(s) = [0.07509]
bas 368, expnt(s) = [0.02832]
bas 369, expnt(s) = [3.266  0.6511 0.1696]
bas 370, expnt(s) = [0.05578]
bas 371, expnt(s) = [0.0205]
bas 372, expnt(s) = [0.1874]
bas 373, expnt(s) = [0.0801]
bas 374, expnt(s) = [0.1829]
bas 375, expnt(s) = [5.988e+03 8.989e+02 2.059e+02 5.924e+01 1.987e+01 7.406e+00 2.930e+00
 1.189e+00 4.798e-01]
bas 376, expnt(s) = [0.07509]
bas 377, expnt(s) = [0.02832]
bas 378, expnt(s) = [3.266  0.6511 0.1696]
bas 379, expnt(s) = [0.05578]
bas 380, expnt(s) = [0.0205]
bas 381, expnt(s) = [0.1874]
bas 382, expnt(s) = [0.0801]
bas 383, expnt(s) = [0.1829]
CPU time:         0.68
arg.atm = [[  6  20   1  23   0   0]
 [  8  24   1  27   0   0]
 [  6  28   1  31   0   0]
 [  8  32   1  35   0   0]
 [  6  36   1  39   0   0]
 [  8  40   1  43   0   0]
 [  1  44   1  47   0   0]
 [  1  48   1  51   0   0]
 [  1  52   1  55   0   0]
 [  1  56   1  59   0   0]
 [  3  60   1  63   0   0]
 [  3  64   1  67   0   0]
 [  3  68   1  71   0   0]
 [  3  72   1  75   0   0]
 [  3  76   1  79   0   0]
 [  3  80   1  83   0   0]
 [  3  84   1  87   0   0]
 [  3  88   1  91   0   0]
 [  3  92   1  95   0   0]
 [  3  96   1  99   0   0]
 [  3 100   1 103   0   0]
 [  3 104   1 107   0   0]
 [  3 108   1 111   0   0]
 [  3 112   1 115   0   0]
 [  3 116   1 119   0   0]
 [  3 120   1 123   0   0]
 [  3 124   1 127   0   0]
 [  3 128   1 131   0   0]
 [  3 132   1 135   0   0]
 [  3 136   1 139   0   0]
 [  3 140   1 143   0   0]
 [  3 144   1 147   0   0]
 [  3 148   1 151   0   0]
 [  3 152   1 155   0   0]
 [  3 156   1 159   0   0]
 [  3 160   1 163   0   0]
 [  3 164   1 167   0   0]
 [  3 168   1 171   0   0]
 [  3 172   1 175   0   0]
 [  3 176   1 179   0   0]
 [  3 180   1 183   0   0]
 [  3 184   1 187   0   0]
 [  3 188   1 191   0   0]
 [  3 192   1 195   0   0]]
arg.bas = [[  0   0   8 ... 196 204   0]
 [  0   0   1 ... 220 221   0]
 [  0   0   1 ... 222 223   0]
 ...
 [ 43   2   1 ... 281 282   0]
 [ 43   2   1 ... 283 284   0]
 [ 43   3   1 ... 285 286   0]]
arg.env = [ 0.00000000e+00  0.00000000e+00  0.00000000e+00  0.00000000e+00
  0.00000000e+00  0.00000000e+00  0.00000000e+00  0.00000000e+00
  0.00000000e+00  0.00000000e+00  0.00000000e+00  0.00000000e+00
  0.00000000e+00  0.00000000e+00  0.00000000e+00  0.00000000e+00
  0.00000000e+00  0.00000000e+00  0.00000000e+00  0.00000000e+00
  9.24019383e+00  8.69207877e+00  1.93853964e+01  0.00000000e+00
  9.20328748e+00  8.02338028e+00  1.69179054e+01  0.00000000e+00
  1.00360331e+01  9.81468947e+00  1.55586821e+01  0.00000000e+00
  1.08957451e+01  1.15484943e+01  1.69739736e+01  0.00000000e+00
  1.09115621e+01  1.07758609e+01  1.94118904e+01  0.00000000e+00
  1.00150193e+01  9.85709492e+00  1.34415463e+01  0.00000000e+00
  9.84993286e+00  7.17778453e+00  2.04358385e+01  0.00000000e+00
  7.47029524e+00  9.20530949e+00  1.99330201e+01  0.00000000e+00
  1.03268241e+01  1.22452552e+01  2.05375057e+01  0.00000000e+00
  1.26928935e+01  1.02404070e+01  1.98977389e+01  0.00000000e+00
  9.94742383e+00  9.94742383e+00  9.94742383e+00  0.00000000e+00
  9.94742383e+00  3.31580794e+00  9.94742383e+00  0.00000000e+00
  1.65790397e+01  9.94742383e+00  9.94742383e+00  0.00000000e+00
  3.31580794e+00  9.94742383e+00  9.94742383e+00  0.00000000e+00
  9.94742383e+00  1.65790397e+01  9.94742383e+00  0.00000000e+00
  1.32632318e+01  6.63161589e+00  6.63161589e+00  0.00000000e+00
  6.63161589e+00  6.63161589e+00  6.63161589e+00  0.00000000e+00
  1.32632318e+01  1.32632318e+01  6.63161589e+00  0.00000000e+00
  6.63161589e+00  1.32632318e+01  6.63161589e+00  0.00000000e+00
  1.65790397e+01  3.31580794e+00  9.94742383e+00  0.00000000e+00
  3.31580794e+00  3.31580794e+00  9.94742383e+00  0.00000000e+00
  1.65790397e+01  1.65790397e+01  9.94742383e+00  0.00000000e+00
  3.31580794e+00  1.65790397e+01  9.94742383e+00  0.00000000e+00
  9.94742383e+00  9.94742383e+00  3.31580794e+00  0.00000000e+00
  9.94742383e+00  3.31580794e+00  3.31580794e+00  0.00000000e+00
  1.65790397e+01  9.94742383e+00  3.31580794e+00  0.00000000e+00
  3.31580794e+00  9.94742383e+00  3.31580794e+00  0.00000000e+00
  9.94742383e+00  1.65790397e+01  3.31580794e+00  0.00000000e+00
  1.32632318e+01  0.00000000e+00  6.63161589e+00  0.00000000e+00
  6.63161589e+00  0.00000000e+00  6.63161589e+00  0.00000000e+00
  0.00000000e+00  6.63161589e+00  6.63161589e+00  0.00000000e+00
  0.00000000e+00  1.32632318e+01  6.63161589e+00  0.00000000e+00
  1.65790397e+01  3.31580794e+00  3.31580794e+00  0.00000000e+00
  3.31580794e+00  3.31580794e+00  3.31580794e+00  0.00000000e+00
  1.65790397e+01  1.65790397e+01  3.31580794e+00  0.00000000e+00
  3.31580794e+00  1.65790397e+01  3.31580794e+00  0.00000000e+00
  1.32632318e+01  6.63161589e+00  0.00000000e+00  0.00000000e+00
  6.63161589e+00  6.63161589e+00  0.00000000e+00  0.00000000e+00
  1.32632318e+01  1.32632318e+01  0.00000000e+00  0.00000000e+00
  6.63161589e+00  1.32632318e+01  0.00000000e+00  0.00000000e+00
  0.00000000e+00  0.00000000e+00  6.63161589e+00  0.00000000e+00
  1.32632318e+01  0.00000000e+00  0.00000000e+00  0.00000000e+00
  6.63161589e+00  0.00000000e+00  0.00000000e+00  0.00000000e+00
  0.00000000e+00  6.63161589e+00  0.00000000e+00  0.00000000e+00
  8.23600000e+03  1.23500000e+03  2.80800000e+02  7.92700000e+01
  2.55900000e+01  8.99700000e+00  3.31900000e+00  3.64300000e-01
  1.18480296e+00  2.20874210e+00  3.73316324e+00  5.61216719e+00
  6.89519583e+00  5.82409515e+00  2.19663441e+00 -1.08712663e-02
 -4.28969670e-01 -8.03166571e-01 -1.36745981e+00 -2.11525239e+00
 -2.78571299e+00 -2.89453423e+00 -1.83934657e+00  1.23268730e+00
  9.05900000e-01  2.34598494e+00  1.28500000e-01  5.42241022e-01
  1.87100000e+01  4.13300000e+00  1.20000000e+00  4.47572721e+00
  4.19627876e+00  2.98800046e+00  3.82700000e-01  8.78127282e-01
  1.20900000e-01  2.07977938e-01  1.09700000e+00  3.06825171e+00
  3.18000000e-01  3.51379844e-01  7.61000000e-01  1.06690522e+00
  5.98800000e+03  8.98900000e+02  2.05900000e+02  5.92400000e+01
  1.98700000e+01  7.40600000e+00  2.93000000e+00  1.18900000e+00
  4.79800000e-01  2.29069316e-01  4.25756548e-01  7.25056076e-01
  1.13074246e+00  1.57971158e+00  1.88304523e+00  1.78512072e+00
  1.13373211e+00  2.78411257e-01 -1.33552750e-01 -2.46934407e-01
 -4.16416863e-01 -6.63522613e-01 -9.24900580e-01 -1.17847379e+00
 -1.17034612e+00 -1.05567981e+00 -6.04251387e-01  7.50900000e-02
  3.62411193e-01  2.83200000e-02  1.74415453e-01  3.26600000e+00
  6.51100000e-01  1.69600000e-01  4.55280795e-01  3.34078737e-01
  2.74333054e-01  5.57800000e-02  7.90828897e-02  2.05000000e-02
  2.26295917e-02  1.87400000e-01  1.39275961e-01  8.01000000e-02
  3.14692425e-02  1.82900000e-01  4.31510332e-02  1.53300000e+04
  2.29900000e+03  5.22400000e+02  1.47300000e+02  4.75500000e+01
  1.67600000e+01  6.20700000e+00  6.88200000e-01  1.81067529e+00
  3.37486577e+00  5.72265412e+00  8.66150357e+00  1.08070276e+01
  9.28179538e+00  3.56346173e+00 -1.59395830e-02 -6.86527364e-01
 -1.28759909e+00 -2.19507417e+00 -3.43047366e+00 -4.58719692e+00
 -4.89805685e+00 -2.99457591e+00  1.97563931e+00  1.75200000e+00
  3.84738459e+00  2.38400000e-01  8.61975084e-01  3.44600000e+01
  7.74900000e+00  2.28000000e+00  1.00262994e+01  9.72213774e+00
  6.55849668e+00  7.15600000e-01  1.92009319e+00  2.14000000e-01
  4.24621137e-01  2.31400000e+00  1.13283134e+01  6.45000000e-01
  1.21132000e+00  1.42800000e+00  4.39692268e+00  3.38700000e+01
  5.09500000e+00  1.15900000e+00  9.04334519e-01  1.63100455e+00
  2.40491525e+00  3.25800000e-01  1.08950276e+00  1.02700000e-01
  4.58345379e-01  1.40700000e+00  4.47045795e+00  3.88000000e-01
  8.93354953e-01  1.05700000e+00  2.87515071e+00]
ecpbas  = []


******** <class 'pyscf.scf.hf.RHF'> ********
method = RHF
initial guess = minao
damping factor = 0
level_shift factor = 0
DIIS = <class 'pyscf.scf.diis.CDIIS'>
diis_start_cycle = 1
diis_space = 8
SCF conv_tol = 1e-09
SCF conv_tol_grad = None
SCF max_cycles = 50
direct_scf = True
direct_scf_tol = 1e-13
chkfile to save SCF result = /burg/ccce/users/eav2136/projects/batteries/01_mp2/tmp/tmp29gbp8np
max_memory 700000 MB (current use 95 MB)
Set gradient conv threshold to 3.16228e-05
Nelec from initial guess = 147.9983834782659
    CPU time for vj and vk   7090.45 sec, wall time    222.44 sec
E1 = -3020.0626384242623  E_coul = 1304.3330739830262
init E= -599.370486199791
cond(S) = 45411834.82703838
    CPU time for initialize scf   7104.77 sec, wall time    223.32 sec
  HOMO = -0.110303070185959  LUMO = -0.0934566681202703
  mo_energy =
[-2.08434470e+01 -2.07935942e+01 -2.07926006e+01 -1.13785368e+01
 -1.13528386e+01 -1.13477180e+01 -2.53552220e+00 -2.52473595e+00
 -2.52400111e+00 -2.52273038e+00 -2.52207302e+00 -2.52051412e+00
 -2.51849682e+00 -2.51592592e+00 -2.51373504e+00 -2.50663692e+00
 -2.50534023e+00 -2.50500751e+00 -2.50463230e+00 -2.50358988e+00
 -2.50324176e+00 -2.50310016e+00 -2.50286158e+00 -2.50192829e+00
 -2.50179031e+00 -2.50142639e+00 -2.50132331e+00 -2.50102874e+00
 -2.49983142e+00 -2.49688453e+00 -2.49458656e+00 -2.49394954e+00
 -2.49252598e+00 -2.49220944e+00 -2.49211689e+00 -2.49207387e+00
 -2.49190342e+00 -2.49058388e+00 -2.49016505e+00 -2.48738128e+00
 -2.16877871e+00 -1.79612721e+00 -1.65778744e+00 -1.33706189e+00
 -1.05209160e+00 -9.01496683e-01 -8.03090778e-01 -7.85899504e-01
 -6.88757452e-01 -6.83746521e-01 -6.51115672e-01 -6.21456000e-01
 -5.69925854e-01 -5.00396809e-01 -4.95215915e-01 -4.68123255e-01
 -4.62127037e-01 -4.37331348e-01 -4.04092256e-01 -3.44373958e-01
 -3.24619226e-01 -3.19110214e-01 -2.73740853e-01 -2.66496074e-01
 -2.38752001e-01 -2.29152735e-01 -1.81296415e-01 -1.78778236e-01
 -1.47769130e-01 -1.44969157e-01 -1.33292702e-01 -1.23363288e-01
 -1.13945139e-01 -1.10303070e-01 -9.34566681e-02 -7.47332678e-02
 -7.12638014e-02 -6.79551421e-02 -5.93671395e-02 -5.28246409e-02
 -4.88379516e-02 -4.12992248e-02 -3.66118875e-02 -3.39571099e-02
 -2.89484643e-02 -1.92468422e-02 -1.73801251e-02 -1.47298061e-02
 -1.20327259e-02 -9.67078375e-03 -3.84505884e-03 -9.26018095e-04
  3.47423236e-04  2.37852038e-03  9.93203439e-03  1.28566862e-02
  1.55212756e-02  1.61621658e-02  1.75133440e-02  1.98660110e-02
  2.25160535e-02  2.42091904e-02  2.77021491e-02  2.86051094e-02
  3.05333872e-02  3.45587168e-02  3.61935111e-02  3.97167116e-02
  4.03540191e-02  4.05230359e-02  4.37801632e-02  4.53620082e-02
  4.60275860e-02  4.80017573e-02  4.87788801e-02  5.00308759e-02
  5.07126528e-02  5.24858764e-02  5.28439382e-02  5.44519777e-02
  5.65393186e-02  5.74257419e-02  5.77764188e-02  5.88123909e-02
  6.07107864e-02  6.11650681e-02  6.19591231e-02  6.31541262e-02
  6.38785577e-02  6.54279986e-02  6.66838858e-02  6.79001706e-02
  6.85004838e-02  6.95271591e-02  7.10113776e-02  7.24899065e-02
  7.31772727e-02  7.39886550e-02  7.54918291e-02  7.58611681e-02
  7.78877956e-02  7.84360410e-02  7.94414667e-02  8.01147322e-02
  8.10387822e-02  8.16369959e-02  8.24652147e-02  8.52106195e-02
  8.76083133e-02  8.78014120e-02  8.95308118e-02  9.05956050e-02
  9.21599624e-02  9.26160835e-02  9.32702399e-02  9.45069375e-02
  9.65874075e-02  9.81018180e-02  9.93229324e-02  1.01637178e-01
  1.02682945e-01  1.03992256e-01  1.04608985e-01  1.05138477e-01
  1.05622232e-01  1.06922604e-01  1.07297146e-01  1.09682308e-01
  1.09834679e-01  1.11052260e-01  1.11515933e-01  1.12699409e-01
  1.13063012e-01  1.14015329e-01  1.15131683e-01  1.15789717e-01
  1.16337137e-01  1.16867223e-01  1.17955430e-01  1.19745053e-01
  1.20667062e-01  1.21135847e-01  1.23193194e-01  1.23719198e-01
  1.24332045e-01  1.25940008e-01  1.26376087e-01  1.27981024e-01
  1.28863454e-01  1.30474273e-01  1.31789646e-01  1.33895158e-01
  1.34750304e-01  1.35630796e-01  1.36607657e-01  1.37030084e-01
  1.38553863e-01  1.39634742e-01  1.40638524e-01  1.41824971e-01
  1.43291837e-01  1.43868829e-01  1.44930088e-01  1.46025728e-01
  1.46551012e-01  1.48408862e-01  1.50241396e-01  1.50721401e-01
  1.51755138e-01  1.52169117e-01  1.53310524e-01  1.54596525e-01
  1.55745286e-01  1.56325692e-01  1.57813130e-01  1.59022348e-01
  1.60360294e-01  1.61698228e-01  1.63161842e-01  1.63649487e-01
  1.64182988e-01  1.64694706e-01  1.66504660e-01  1.67940548e-01
  1.68833359e-01  1.69962998e-01  1.70963631e-01  1.72917870e-01
  1.74090098e-01  1.74806064e-01  1.75785052e-01  1.76612732e-01
  1.77140595e-01  1.78869123e-01  1.79514141e-01  1.81239580e-01
  1.83140633e-01  1.83667215e-01  1.86019390e-01  1.87106114e-01
  1.87926569e-01  1.89331573e-01  1.90737120e-01  1.91987958e-01
  1.93633674e-01  1.93813564e-01  1.95325459e-01  1.97078207e-01
  1.97560327e-01  1.98901928e-01  2.00105295e-01  2.01369695e-01
  2.02613962e-01  2.04983597e-01  2.05869575e-01  2.06276747e-01
  2.08261548e-01  2.08463636e-01  2.09006920e-01  2.09867087e-01
  2.11392669e-01  2.12627737e-01  2.13402802e-01  2.13946778e-01
  2.15686003e-01  2.16270603e-01  2.17844333e-01  2.18467726e-01
  2.19701614e-01  2.20311959e-01  2.22299578e-01  2.23782010e-01
  2.25718907e-01  2.26662506e-01  2.26894413e-01  2.29421684e-01
  2.31258638e-01  2.32494748e-01  2.33922675e-01  2.35141219e-01
  2.37711831e-01  2.39291973e-01  2.40676571e-01  2.41862760e-01
  2.43420799e-01  2.44140798e-01  2.48601838e-01  2.49518482e-01
  2.53300110e-01  2.54673775e-01  2.55156633e-01  2.57917457e-01
  2.59883644e-01  2.61047245e-01  2.62821004e-01  2.63854783e-01
  2.66223503e-01  2.68378079e-01  2.69566643e-01  2.70087372e-01
  2.71949334e-01  2.73494884e-01  2.75762333e-01  2.76239140e-01
  2.77385973e-01  2.79365302e-01  2.81619608e-01  2.83194291e-01
  2.84652907e-01  2.86431632e-01  2.86848635e-01  2.88520675e-01
  2.90189628e-01  2.90749559e-01  2.91673190e-01  2.92846791e-01
  2.93584095e-01  2.95592184e-01  2.97487359e-01  2.98181415e-01
  3.01095994e-01  3.03142122e-01  3.05372724e-01  3.06974099e-01
  3.08079063e-01  3.08511552e-01  3.10018561e-01  3.11183095e-01
  3.12532978e-01  3.14303918e-01  3.15137845e-01  3.16133395e-01
  3.20320295e-01  3.21314517e-01  3.23106571e-01  3.25296184e-01
  3.28212323e-01  3.28832719e-01  3.33264105e-01  3.34624396e-01
  3.35213706e-01  3.35590927e-01  3.39032817e-01  3.41079629e-01
  3.42549125e-01  3.44997839e-01  3.46413045e-01  3.48114207e-01
  3.50349213e-01  3.52201222e-01  3.52552191e-01  3.56426268e-01
  3.57094661e-01  3.59474108e-01  3.60018423e-01  3.61249048e-01
  3.62784138e-01  3.65235670e-01  3.66137115e-01  3.67027989e-01
  3.68616614e-01  3.69559674e-01  3.71634840e-01  3.72072232e-01
  3.72860025e-01  3.74838795e-01  3.75261940e-01  3.77013898e-01
  3.79969948e-01  3.81415895e-01  3.81638900e-01  3.83456015e-01
  3.84819088e-01  3.85710579e-01  3.88545322e-01  3.89768121e-01
  3.91528775e-01  3.93329658e-01  3.94394061e-01  3.94585551e-01
  3.97380061e-01  3.97828013e-01  4.01108487e-01  4.01304283e-01
  4.03093630e-01  4.03710873e-01  4.05302856e-01  4.07170386e-01
  4.07601496e-01  4.11111478e-01  4.12079540e-01  4.13201072e-01
  4.14350480e-01  4.15951565e-01  4.16783214e-01  4.18271405e-01
  4.19756062e-01  4.20226287e-01  4.22454120e-01  4.22961374e-01
  4.24796879e-01  4.25304727e-01  4.26880114e-01  4.28427517e-01
  4.28657595e-01  4.29615254e-01  4.31922046e-01  4.32464722e-01
  4.33640478e-01  4.34555668e-01  4.35808492e-01  4.37700776e-01
  4.38444978e-01  4.40654053e-01  4.41785380e-01  4.43255007e-01
  4.44301081e-01  4.46366703e-01  4.47369102e-01  4.49347267e-01
  4.52041833e-01  4.52724221e-01  4.54017307e-01  4.54630726e-01
  4.56340968e-01  4.56920389e-01  4.57775512e-01  4.59627289e-01
  4.61190970e-01  4.62249725e-01  4.63157841e-01  4.64693360e-01
  4.65681530e-01  4.66889939e-01  4.68363017e-01  4.69566032e-01
  4.70189451e-01  4.72986820e-01  4.73574673e-01  4.75708553e-01
  4.76618671e-01  4.78298616e-01  4.79296990e-01  4.80366729e-01
  4.82497901e-01  4.83322888e-01  4.83787659e-01  4.86594854e-01
  4.87103560e-01  4.89502392e-01  4.90633315e-01  4.92451169e-01
  4.93058021e-01  4.94592845e-01  4.95828739e-01  4.96611955e-01
  4.97173597e-01  4.97679784e-01  4.98593560e-01  5.00221485e-01
  5.02971797e-01  5.04983798e-01  5.06543384e-01  5.07404298e-01
  5.08580077e-01  5.09374746e-01  5.11592264e-01  5.12003590e-01
  5.13827948e-01  5.14654053e-01  5.16513873e-01  5.17171553e-01
  5.19893081e-01  5.21729132e-01  5.22347412e-01  5.23614807e-01
  5.25371596e-01  5.27101677e-01  5.29067306e-01  5.29839458e-01
  5.31038031e-01  5.33338117e-01  5.34114894e-01  5.36241175e-01
  5.38315297e-01  5.41854550e-01  5.42956500e-01  5.44144924e-01
  5.45071304e-01  5.47098836e-01  5.49297011e-01  5.50458971e-01
  5.53205113e-01  5.53666846e-01  5.55524439e-01  5.55825178e-01
  5.58935948e-01  5.63307191e-01  5.65533779e-01  5.66247711e-01
  5.69496185e-01  5.69538811e-01  5.69810626e-01  5.71558166e-01
  5.73990307e-01  5.75699475e-01  5.77965844e-01  5.78799035e-01
  5.82043946e-01  5.84726983e-01  5.85851325e-01  5.88627654e-01
  5.91260514e-01  5.94145067e-01  5.95673543e-01  5.97618448e-01
  5.99013637e-01  6.00100041e-01  6.02895768e-01  6.05046945e-01
  6.06712540e-01  6.07308003e-01  6.09686520e-01  6.10931075e-01
  6.13019669e-01  6.14836966e-01  6.15131512e-01  6.17147446e-01
  6.19418430e-01  6.20031295e-01  6.22631401e-01  6.23093104e-01
  6.25129947e-01  6.26653908e-01  6.28398175e-01  6.30108276e-01
  6.31707757e-01  6.32145688e-01  6.33715744e-01  6.35423544e-01
  6.37784585e-01  6.38197730e-01  6.39047440e-01  6.42025834e-01
  6.42522222e-01  6.42729129e-01  6.44833764e-01  6.45761804e-01
  6.48099256e-01  6.49535566e-01  6.50201219e-01  6.51891610e-01
  6.55246700e-01  6.56931534e-01  6.59737585e-01  6.60564904e-01
  6.64319856e-01  6.64827634e-01  6.65469584e-01  6.66484209e-01
  6.67829554e-01  6.68671511e-01  6.71868863e-01  6.72444547e-01
  6.75064533e-01  6.75573163e-01  6.77978452e-01  6.79167460e-01
  6.81399076e-01  6.81600073e-01  6.83658138e-01  6.85507255e-01
  6.86351515e-01  6.89300899e-01  6.90102508e-01  6.92424700e-01
  6.93648105e-01  6.94640358e-01  6.96039407e-01  6.97992341e-01
  6.99918442e-01  7.00846233e-01  7.03283199e-01  7.04238836e-01
  7.04748086e-01  7.08216115e-01  7.08766520e-01  7.10709638e-01
  7.12741650e-01  7.15379352e-01  7.18564944e-01  7.19142998e-01
  7.21826152e-01  7.23607093e-01  7.25881903e-01  7.26221175e-01
  7.27084109e-01  7.31363431e-01  7.32855456e-01  7.34983208e-01
  7.36925824e-01  7.37937521e-01  7.39082017e-01  7.42285596e-01
  7.42998081e-01  7.44874261e-01  7.46495988e-01  7.48520495e-01
  7.50286459e-01  7.51531652e-01  7.51663243e-01  7.55363248e-01
  7.57435230e-01  7.57961824e-01  7.59721698e-01  7.60791857e-01
  7.61859991e-01  7.66200733e-01  7.66976935e-01  7.68547525e-01
  7.70619651e-01  7.71063883e-01  7.72612031e-01  7.74870545e-01
  7.76060173e-01  7.78552237e-01  7.79207068e-01  7.79944045e-01
  7.82594942e-01  7.83505960e-01  7.86983607e-01  7.88227307e-01
  7.89454975e-01  7.90753480e-01  7.92538753e-01  7.94729041e-01
  7.96336822e-01  7.98289548e-01  8.02572347e-01  8.04092692e-01
  8.04834499e-01  8.06611651e-01  8.08171190e-01  8.09822730e-01
  8.11254570e-01  8.13258307e-01  8.15846299e-01  8.17634399e-01
  8.19761572e-01  8.20641478e-01  8.21109200e-01  8.22066876e-01
  8.24884485e-01  8.27136682e-01  8.27329499e-01  8.30856104e-01
  8.33257091e-01  8.34007980e-01  8.36378296e-01  8.38132462e-01
  8.41504465e-01  8.43600844e-01  8.44733632e-01  8.47850526e-01
  8.48546104e-01  8.49178811e-01  8.50596472e-01  8.53241717e-01
  8.54723031e-01  8.55223967e-01  8.57819870e-01  8.59569971e-01
  8.59888041e-01  8.62448493e-01  8.64018155e-01  8.64760659e-01
  8.64998781e-01  8.65589239e-01  8.67900116e-01  8.69890295e-01
  8.71183992e-01  8.75594834e-01  8.76589282e-01  8.79006119e-01
  8.79927609e-01  8.80958263e-01  8.83735845e-01  8.84260664e-01
  8.85639434e-01  8.87395208e-01  8.88577579e-01  8.89031230e-01
  8.92956920e-01  8.93521291e-01  8.95840476e-01  8.96577874e-01
  8.98101416e-01  8.99253828e-01  8.99607462e-01  9.01323709e-01
  9.02187657e-01  9.04513944e-01  9.06914838e-01  9.07875860e-01
  9.08880759e-01  9.09948201e-01  9.11891962e-01  9.13663274e-01
  9.14299201e-01  9.19441743e-01  9.21139844e-01  9.21618170e-01
  9.23916922e-01  9.25005745e-01  9.25991972e-01  9.27240816e-01
  9.30629546e-01  9.32523584e-01  9.33863642e-01  9.35828840e-01
  9.37065342e-01  9.39191770e-01  9.40716529e-01  9.44727573e-01
  9.45713119e-01  9.48571111e-01  9.49500263e-01  9.50094405e-01
  9.52872386e-01  9.53330069e-01  9.55540218e-01  9.57842455e-01
  9.60134416e-01  9.61591341e-01  9.62589494e-01  9.64681296e-01
  9.65110822e-01  9.66519742e-01  9.67516622e-01  9.67887882e-01
  9.70600359e-01  9.70750152e-01  9.73314232e-01  9.74052974e-01
  9.76879678e-01  9.78206431e-01  9.79671660e-01  9.80158586e-01
  9.81674483e-01  9.83366935e-01  9.84118406e-01  9.85659474e-01
  9.87871031e-01  9.88988021e-01  9.90586926e-01  9.91377037e-01
  9.95282764e-01  9.95789318e-01  9.96709891e-01  9.97276066e-01
  9.98390310e-01  1.00152787e+00  1.00287450e+00  1.00411203e+00
  1.00515542e+00  1.00864631e+00  1.01086943e+00  1.01103311e+00
  1.01280388e+00  1.01365424e+00  1.01427485e+00  1.01556832e+00
  1.01883621e+00  1.02062288e+00  1.02153243e+00  1.02256214e+00
  1.02333067e+00  1.02720441e+00  1.02757913e+00  1.02935791e+00
  1.03275517e+00  1.03327027e+00  1.03380456e+00  1.03549737e+00
  1.03738734e+00  1.03842549e+00  1.03931633e+00  1.04109151e+00
  1.04252042e+00  1.04322465e+00  1.04426869e+00  1.04596077e+00
  1.04669789e+00  1.04816489e+00  1.04872155e+00  1.05075963e+00
  1.05266395e+00  1.05612775e+00  1.05689605e+00  1.05768449e+00
  1.05830699e+00  1.05968186e+00  1.06337169e+00  1.06528987e+00
  1.06571953e+00  1.06770093e+00  1.07025474e+00  1.07174707e+00
  1.07391628e+00  1.07716797e+00  1.07816122e+00  1.08045743e+00
  1.08052703e+00  1.08292815e+00  1.08408879e+00  1.08552765e+00
  1.08752937e+00  1.08849750e+00  1.09146372e+00  1.09449050e+00
  1.09525403e+00  1.09756585e+00  1.09780943e+00  1.10508630e+00
  1.10528097e+00  1.10878346e+00  1.10949259e+00  1.10989330e+00
  1.11277753e+00  1.11502581e+00  1.11754636e+00  1.11796398e+00
  1.12004013e+00  1.12296618e+00  1.12494408e+00  1.12526293e+00
  1.12807739e+00  1.12837251e+00  1.12956684e+00  1.13189765e+00
  1.13338612e+00  1.13498777e+00  1.14029175e+00  1.14090492e+00
  1.14199244e+00  1.14323395e+00  1.14515675e+00  1.14703067e+00
  1.14972509e+00  1.15059164e+00  1.15390512e+00  1.15539774e+00
  1.15837636e+00  1.15895160e+00  1.16085322e+00  1.16097647e+00
  1.16366018e+00  1.16442013e+00  1.16720308e+00  1.16778719e+00
  1.16895201e+00  1.17121263e+00  1.17214962e+00  1.17312693e+00
  1.17393474e+00  1.17701992e+00  1.17936228e+00  1.18081962e+00
  1.18146327e+00  1.18451779e+00  1.18636625e+00  1.18832824e+00
  1.18965408e+00  1.19011055e+00  1.19208030e+00  1.19339947e+00
  1.19460059e+00  1.19824677e+00  1.20053649e+00  1.20131124e+00
  1.20317493e+00  1.20407166e+00  1.20569765e+00  1.20726815e+00
  1.20941342e+00  1.21037078e+00  1.21263729e+00  1.21396731e+00
  1.21680288e+00  1.21840076e+00  1.22003507e+00  1.22258122e+00
  1.22374844e+00  1.22565715e+00  1.22759186e+00  1.22847875e+00
  1.23090112e+00  1.23106890e+00  1.23217329e+00  1.23406963e+00
  1.23746147e+00  1.23869669e+00  1.24089325e+00  1.24284809e+00
  1.24330744e+00  1.24541211e+00  1.24794064e+00  1.25163646e+00
  1.25225235e+00  1.25256760e+00  1.25404585e+00  1.25564171e+00
  1.25870036e+00  1.26164787e+00  1.26215354e+00  1.26509647e+00
  1.26651644e+00  1.26750387e+00  1.26877663e+00  1.27012493e+00
  1.27151869e+00  1.27287089e+00  1.27508911e+00  1.27681376e+00
  1.27736971e+00  1.28090815e+00  1.28159639e+00  1.28614607e+00
  1.28726854e+00  1.28786310e+00  1.29078382e+00  1.29132069e+00
  1.29322622e+00  1.29752975e+00  1.29822395e+00  1.29927080e+00
  1.30172608e+00  1.30374165e+00  1.30602604e+00  1.30637537e+00
  1.30843464e+00  1.31217299e+00  1.31336187e+00  1.31388468e+00
  1.31506438e+00  1.32001270e+00  1.32112933e+00  1.32266819e+00
  1.32349549e+00  1.32619886e+00  1.32697810e+00  1.32940067e+00
  1.33068499e+00  1.33363799e+00  1.33462938e+00  1.33810432e+00
  1.34038201e+00  1.34175502e+00  1.34455542e+00  1.34680229e+00
  1.34942089e+00  1.35335410e+00  1.35640378e+00  1.35930634e+00
  1.36043293e+00  1.36183114e+00  1.36351516e+00  1.36598111e+00
  1.36888761e+00  1.36941387e+00  1.37407910e+00  1.37633073e+00
  1.38001034e+00  1.38255036e+00  1.38358375e+00  1.38489089e+00
  1.38862299e+00  1.39133061e+00  1.39271035e+00  1.39638209e+00
  1.39957019e+00  1.40132216e+00  1.40323643e+00  1.40568182e+00
  1.41005698e+00  1.41397109e+00  1.41650025e+00  1.41762934e+00
  1.41958825e+00  1.42429205e+00  1.42537274e+00  1.42927603e+00
  1.43227996e+00  1.43391845e+00  1.43546153e+00  1.43707059e+00
  1.43948857e+00  1.44247575e+00  1.44509432e+00  1.44863685e+00
  1.45180361e+00  1.45382756e+00  1.45931942e+00  1.46018541e+00
  1.46225408e+00  1.46457748e+00  1.46770081e+00  1.47079189e+00
  1.47314488e+00  1.47810616e+00  1.48149914e+00  1.48437520e+00
  1.48806292e+00  1.49126157e+00  1.49642259e+00  1.50065431e+00
  1.50283050e+00  1.50310040e+00  1.50673233e+00  1.50807878e+00
  1.51362967e+00  1.51580230e+00  1.51790328e+00  1.52733583e+00
  1.52876307e+00  1.53087537e+00  1.53936917e+00  1.54184551e+00
  1.54455630e+00  1.54964106e+00  1.55088930e+00  1.55426316e+00
  1.56116182e+00  1.56570620e+00  1.57327951e+00  1.57773043e+00
  1.57967291e+00  1.58379903e+00  1.58662458e+00  1.59216021e+00
  1.59586615e+00  1.59757361e+00  1.60615863e+00  1.60951148e+00
  1.61154473e+00  1.61480759e+00  1.61599754e+00  1.62220349e+00
  1.62771721e+00  1.63979084e+00  1.64558119e+00  1.65658190e+00
  1.66458039e+00  1.66850519e+00  1.67582404e+00  1.67916183e+00
  1.68388283e+00  1.69154874e+00  1.69843152e+00  1.70078223e+00
  1.71182225e+00  1.72068872e+00  1.74302456e+00  1.77504134e+00
  1.78165390e+00  1.79165661e+00  1.81045277e+00  1.84139240e+00
  1.86025633e+00  1.87680610e+00  1.90740346e+00  1.91212868e+00
  1.91846893e+00  1.94279472e+00  1.97090464e+00  2.02303531e+00
  2.07197272e+00  2.07518088e+00  2.15840891e+00  2.23907816e+00
  2.28691474e+00  2.34665566e+00  2.40937995e+00  2.42512391e+00
  2.47047392e+00  2.50312354e+00  2.51407284e+00  2.58732676e+00
  2.63607521e+00  2.70609444e+00  2.72255231e+00  2.72797851e+00
  2.76847462e+00  2.83043700e+00  2.85636351e+00  2.87029243e+00
  2.88773892e+00  2.89855218e+00  2.98012421e+00  3.01914207e+00
  3.07959401e+00  3.11533293e+00  3.13820112e+00  3.15551016e+00
  3.18820041e+00  3.20649956e+00  3.22879627e+00  3.24380722e+00
  3.30055925e+00  3.30979710e+00  3.33283823e+00  3.33903268e+00
  3.35730614e+00  3.36336623e+00  3.36497874e+00  3.38229607e+00
  3.41093145e+00  3.41222983e+00  3.41867312e+00  3.42325716e+00
  3.43838525e+00  3.45374322e+00  3.46849339e+00  3.48016189e+00
  3.48509381e+00  3.50468988e+00  3.51865833e+00  3.53116469e+00
  3.53697035e+00  3.53885977e+00  3.56048261e+00  3.56269037e+00
  3.57508288e+00  3.58015419e+00  3.59731269e+00  3.60606868e+00
  3.62170248e+00  3.63578255e+00  3.63874870e+00  3.67711385e+00
  3.68414863e+00  3.69015937e+00  3.69269908e+00  3.69429029e+00
  3.70350719e+00  3.71398857e+00  3.73261162e+00  3.74264926e+00
  3.75738452e+00  3.76919531e+00  3.78180629e+00  3.80684469e+00
  3.85859969e+00  3.87376784e+00  3.91142726e+00  3.93593238e+00
  3.94977945e+00  3.96140393e+00  3.98541087e+00  4.02155023e+00
  4.04242835e+00  4.04809856e+00  4.05473686e+00  4.06802229e+00
  4.07593163e+00  4.09189050e+00  4.11034218e+00  4.15744272e+00
  4.16439592e+00  4.18998392e+00  4.23510797e+00  4.26174903e+00
  4.29301569e+00  4.29955287e+00  4.30096569e+00  4.31404264e+00
  4.39678738e+00  4.40091188e+00  4.43513066e+00  4.44647352e+00
  4.51414853e+00  4.53549078e+00  4.53915503e+00  4.57633064e+00
  4.62483085e+00  4.65712816e+00  4.67487076e+00  4.69167428e+00
  4.71308111e+00  4.78952939e+00  4.82797247e+00  4.94350808e+00
  5.01426510e+00  5.03804412e+00  5.07525701e+00  5.13145289e+00
  5.13536642e+00  5.29972237e+00  5.31413187e+00  5.38137093e+00
  5.43309066e+00  5.43683907e+00  5.44930186e+00  5.48076719e+00
  5.51978117e+00  5.52061976e+00  5.58324214e+00  5.65619043e+00
  5.72968910e+00  5.74543134e+00  5.82651178e+00  5.84172495e+00
  5.95393434e+00  5.95764222e+00  6.03088693e+00  6.06027812e+00
  6.10396693e+00  6.11856761e+00  6.15335830e+00  6.17018970e+00
  6.26184987e+00  6.35193173e+00  6.42002452e+00  6.43019859e+00
  6.44490737e+00  6.54440008e+00  6.60562783e+00  6.64667832e+00
  6.69878793e+00  6.78649084e+00  6.83260831e+00  6.87919111e+00
  6.88195668e+00  6.95729974e+00  7.02260888e+00  7.12901586e+00
  7.15508419e+00  7.23198079e+00  7.26604036e+00  7.29551354e+00
  7.32126203e+00  7.37095837e+00  7.43740550e+00  7.45543571e+00
  7.64329438e+00  7.69587070e+00  7.83071981e+00  7.91620389e+00
  8.03537115e+00  8.37762664e+00  1.13068540e+01  1.31370020e+01
  1.33562936e+01  1.41322167e+01  1.59634802e+01  1.75795478e+01]
    CPU time for vj and vk   7423.89 sec, wall time    232.67 sec
E1 = -3035.264026945964  E_coul = 1325.4551747848818
cycle= 1 E= -593.449773919637  delta_E= 5.92  |g|= 1.08  |ddm|= 20.5
    CPU time for cycle= 1   7428.08 sec, wall time    233.15 sec
diis-norm(errvec)=5.73699
diis-c [-32.91307842   1.        ]
  HOMO = -0.0312077780196003  LUMO = 0.00700348743446231
  mo_energy =
[-2.06064019e+01 -2.05923153e+01 -2.02420885e+01 -1.16701918e+01
 -1.14493537e+01 -1.14434669e+01 -2.48772478e+00 -2.47932180e+00
 -2.47484257e+00 -2.45899853e+00 -2.42595787e+00 -2.41537024e+00
 -2.41217972e+00 -2.41210821e+00 -2.40555235e+00 -2.40132553e+00
 -2.40091634e+00 -2.38881061e+00 -2.37922390e+00 -2.37760910e+00
 -2.37588869e+00 -2.36832777e+00 -2.36308780e+00 -2.36097883e+00
 -2.35278238e+00 -2.34635794e+00 -2.33236866e+00 -2.32660843e+00
 -2.30923150e+00 -2.30348560e+00 -2.29773856e+00 -2.29518446e+00
 -2.24921280e+00 -2.24226520e+00 -2.23830725e+00 -2.21337397e+00
 -2.21299629e+00 -2.20680455e+00 -2.15171110e+00 -2.15125292e+00
 -1.68706096e+00 -1.50330720e+00 -1.41937614e+00 -1.19831388e+00
 -1.03258277e+00 -9.28618343e-01 -8.73108286e-01 -8.12852482e-01
 -7.81533232e-01 -7.14455581e-01 -7.00178919e-01 -6.32019169e-01
 -6.11544768e-01 -5.84055651e-01 -5.31018256e-01 -4.53712772e-01
 -4.10273208e-01 -2.36631555e-01 -2.16799398e-01 -2.09370221e-01
 -1.87968757e-01 -1.64932536e-01 -1.50710613e-01 -1.37895698e-01
 -1.25940065e-01 -1.07429089e-01 -1.01869056e-01 -9.95618542e-02
 -9.27433725e-02 -6.80830525e-02 -4.98285796e-02 -4.69190277e-02
 -3.50862384e-02 -3.12077780e-02  7.00348743e-03  7.43452662e-03
  1.04963565e-02  1.67357881e-02  1.96382262e-02  2.11151675e-02
  2.31292658e-02  2.62249231e-02  2.67615452e-02  3.07079900e-02
  3.08937822e-02  3.37545581e-02  3.67449014e-02  4.03673319e-02
  4.14387894e-02  4.39983284e-02  4.50510484e-02  4.72648742e-02
  4.81655769e-02  5.06375618e-02  5.12799405e-02  5.26727916e-02
  5.55866627e-02  5.62811221e-02  5.65340957e-02  5.73902371e-02
  5.87539651e-02  6.00728302e-02  6.15061281e-02  6.24410432e-02
  6.32072629e-02  6.58384631e-02  6.75224599e-02  6.94764327e-02
  7.06224657e-02  7.16804743e-02  7.29192355e-02  7.29919166e-02
  7.34416348e-02  7.50082988e-02  7.90214013e-02  8.10844022e-02
  8.17875253e-02  8.20314246e-02  8.33087931e-02  8.38269311e-02
  8.48671377e-02  8.54226714e-02  8.73590736e-02  8.95286450e-02
  9.03553083e-02  9.09007844e-02  9.17353877e-02  9.32631284e-02
  9.41278501e-02  9.52663153e-02  9.53438961e-02  9.70904581e-02
  9.81027241e-02  9.94870283e-02  1.00264126e-01  1.02571367e-01
  1.03729030e-01  1.05087421e-01  1.06423973e-01  1.09042932e-01
  1.09955119e-01  1.10946945e-01  1.11685697e-01  1.12174148e-01
  1.13507391e-01  1.15456007e-01  1.15849151e-01  1.17358168e-01
  1.17683247e-01  1.19086441e-01  1.20104691e-01  1.21401249e-01
  1.22115835e-01  1.24083213e-01  1.24737980e-01  1.25763604e-01
  1.27455584e-01  1.28175631e-01  1.30516924e-01  1.32121010e-01
  1.32727613e-01  1.33485236e-01  1.34624275e-01  1.36415894e-01
  1.37566981e-01  1.38273363e-01  1.39806670e-01  1.40343609e-01
  1.41971133e-01  1.42198029e-01  1.43080231e-01  1.43988710e-01
  1.45293665e-01  1.46371878e-01  1.47883256e-01  1.48582186e-01
  1.50086807e-01  1.52363345e-01  1.52925217e-01  1.54049962e-01
  1.54894406e-01  1.56814935e-01  1.58470769e-01  1.59102500e-01
  1.59695177e-01  1.60998638e-01  1.61859895e-01  1.64208254e-01
  1.66090475e-01  1.67582286e-01  1.68320821e-01  1.69659661e-01
  1.71711519e-01  1.73162416e-01  1.74822754e-01  1.75363486e-01
  1.76709166e-01  1.78934534e-01  1.79473935e-01  1.81760355e-01
  1.82588884e-01  1.83640996e-01  1.85077139e-01  1.85824576e-01
  1.88417802e-01  1.89213285e-01  1.90179463e-01  1.91081292e-01
  1.92777956e-01  1.92921432e-01  1.95429395e-01  1.97639883e-01
  1.99277167e-01  2.01777301e-01  2.02259228e-01  2.02676292e-01
  2.05138089e-01  2.07239435e-01  2.07907123e-01  2.09111828e-01
  2.10480688e-01  2.12020216e-01  2.13768100e-01  2.15407922e-01
  2.16483459e-01  2.19251328e-01  2.20490955e-01  2.21526540e-01
  2.23855536e-01  2.24063630e-01  2.26282586e-01  2.28141391e-01
  2.29032375e-01  2.30559574e-01  2.31807487e-01  2.34050422e-01
  2.36511837e-01  2.38137832e-01  2.39254039e-01  2.40602824e-01
  2.41751823e-01  2.42575022e-01  2.44039805e-01  2.44779849e-01
  2.45716590e-01  2.48068876e-01  2.48565879e-01  2.49826004e-01
  2.51365433e-01  2.53158561e-01  2.53762584e-01  2.55478925e-01
  2.57471267e-01  2.59760397e-01  2.60907882e-01  2.61050872e-01
  2.63238890e-01  2.65336085e-01  2.65953913e-01  2.67936986e-01
  2.71358826e-01  2.71735815e-01  2.75336011e-01  2.76671368e-01
  2.78141695e-01  2.78572897e-01  2.83987183e-01  2.84465936e-01
  2.85520888e-01  2.86793935e-01  2.88578189e-01  2.89693075e-01
  2.92653851e-01  2.93646946e-01  2.94982220e-01  2.97240821e-01
  2.98116091e-01  3.00424424e-01  3.03111329e-01  3.05388817e-01
  3.06571424e-01  3.06780668e-01  3.09088017e-01  3.10986559e-01
  3.12226635e-01  3.13543975e-01  3.16535017e-01  3.17281834e-01
  3.19356808e-01  3.21937916e-01  3.22812919e-01  3.24974386e-01
  3.27484712e-01  3.28057031e-01  3.31664575e-01  3.32450216e-01
  3.35195915e-01  3.35656864e-01  3.37383737e-01  3.39262679e-01
  3.42932048e-01  3.43828491e-01  3.45104017e-01  3.46651553e-01
  3.48437032e-01  3.51419402e-01  3.54146322e-01  3.57900874e-01
  3.59832557e-01  3.60844913e-01  3.61194252e-01  3.63216952e-01
  3.65687246e-01  3.66610130e-01  3.69120230e-01  3.70487382e-01
  3.75157119e-01  3.76478017e-01  3.78445110e-01  3.79705070e-01
  3.80215063e-01  3.80543816e-01  3.84629229e-01  3.86342540e-01
  3.87985929e-01  3.89920979e-01  3.91911845e-01  3.93126703e-01
  3.93275825e-01  3.95980361e-01  3.96770459e-01  3.98926435e-01
  4.00467406e-01  4.03047055e-01  4.05949913e-01  4.07716225e-01
  4.08429678e-01  4.08678767e-01  4.10599916e-01  4.13587821e-01
  4.14259229e-01  4.15328097e-01  4.16311069e-01  4.18560388e-01
  4.19869172e-01  4.21869781e-01  4.25584252e-01  4.26115615e-01
  4.27527827e-01  4.28497536e-01  4.31180935e-01  4.32886796e-01
  4.33083737e-01  4.34029406e-01  4.36268876e-01  4.37480908e-01
  4.38165900e-01  4.39643584e-01  4.41081976e-01  4.43055732e-01
  4.44031197e-01  4.46741931e-01  4.48647135e-01  4.49447207e-01
  4.51264984e-01  4.53101770e-01  4.53942055e-01  4.55882016e-01
  4.56538352e-01  4.60553727e-01  4.60897867e-01  4.61330951e-01
  4.62944545e-01  4.64769198e-01  4.65742743e-01  4.66726263e-01
  4.68331260e-01  4.71278346e-01  4.72645344e-01  4.73518170e-01
  4.75777097e-01  4.77148517e-01  4.78208013e-01  4.79069568e-01
  4.80405096e-01  4.82022734e-01  4.83064954e-01  4.83820989e-01
  4.84514101e-01  4.86316175e-01  4.88215828e-01  4.90370734e-01
  4.91227788e-01  4.91979210e-01  4.93771022e-01  4.94407200e-01
  4.95102177e-01  4.97583302e-01  4.98418816e-01  4.99983158e-01
  5.01820876e-01  5.02961918e-01  5.04309245e-01  5.04918811e-01
  5.05348067e-01  5.07401911e-01  5.07836319e-01  5.11924656e-01
  5.12497078e-01  5.12696411e-01  5.14736166e-01  5.16000442e-01
  5.16716660e-01  5.17270528e-01  5.20107667e-01  5.21031949e-01
  5.23832611e-01  5.24021394e-01  5.25914577e-01  5.28055004e-01
  5.28795466e-01  5.30992821e-01  5.31659830e-01  5.32708149e-01
  5.34738507e-01  5.36136519e-01  5.38443344e-01  5.42124600e-01
  5.43570817e-01  5.45514790e-01  5.46322965e-01  5.47204310e-01
  5.49905215e-01  5.51997106e-01  5.52775143e-01  5.54076207e-01
  5.55995228e-01  5.58689908e-01  5.59177248e-01  5.60243330e-01
  5.62495410e-01  5.63844800e-01  5.68472571e-01  5.69207796e-01
  5.70200291e-01  5.73445618e-01  5.76651321e-01  5.77714729e-01
  5.78897714e-01  5.80000430e-01  5.81414304e-01  5.84250915e-01
  5.85490540e-01  5.86014402e-01  5.86592386e-01  5.89238062e-01
  5.91427811e-01  5.92476129e-01  5.93661939e-01  5.94144035e-01
  5.96371834e-01  5.97154149e-01  5.99745422e-01  6.01840967e-01
  6.03585372e-01  6.04417117e-01  6.06146881e-01  6.07577445e-01
  6.08750285e-01  6.11171584e-01  6.12231377e-01  6.13039687e-01
  6.15007977e-01  6.16605514e-01  6.18083578e-01  6.19274285e-01
  6.21855777e-01  6.22591816e-01  6.23449129e-01  6.26085699e-01
  6.26580925e-01  6.27435390e-01  6.29706987e-01  6.29935177e-01
  6.30523987e-01  6.31773968e-01  6.33202396e-01  6.35264596e-01
  6.36881084e-01  6.37186032e-01  6.38732799e-01  6.41571076e-01
  6.42957538e-01  6.44936308e-01  6.46841229e-01  6.47143823e-01
  6.49894159e-01  6.51606211e-01  6.52487351e-01  6.54474949e-01
  6.55629331e-01  6.58283036e-01  6.59844382e-01  6.61185804e-01
  6.63500094e-01  6.65070130e-01  6.66819800e-01  6.68286354e-01
  6.69729084e-01  6.72013240e-01  6.73682864e-01  6.74422018e-01
  6.76581369e-01  6.78418250e-01  6.80562886e-01  6.82805733e-01
  6.85778482e-01  6.89258157e-01  6.91080802e-01  6.91863477e-01
  6.92519798e-01  6.95951459e-01  6.98709635e-01  6.99612308e-01
  7.00619618e-01  7.02538429e-01  7.05720564e-01  7.06833516e-01
  7.09200786e-01  7.13251602e-01  7.14192390e-01  7.15620337e-01
  7.19100530e-01  7.20366446e-01  7.23389767e-01  7.25651023e-01
  7.26865600e-01  7.27848059e-01  7.30231332e-01  7.31446670e-01
  7.34919261e-01  7.36294119e-01  7.39508821e-01  7.41610031e-01
  7.43435057e-01  7.43828874e-01  7.48794579e-01  7.50109419e-01
  7.50334009e-01  7.52758759e-01  7.55967423e-01  7.58149907e-01
  7.60537770e-01  7.61612119e-01  7.62958528e-01  7.64173693e-01
  7.67450172e-01  7.69242104e-01  7.71391031e-01  7.72805346e-01
  7.74336937e-01  7.75909586e-01  7.79389065e-01  7.80242311e-01
  7.81639508e-01  7.84162832e-01  7.85379902e-01  7.86384798e-01
  7.88578722e-01  7.91363910e-01  7.92098279e-01  7.93040069e-01
  7.95090594e-01  7.98171276e-01  7.99404157e-01  8.00689772e-01
  8.01226359e-01  8.02149045e-01  8.04808093e-01  8.07458459e-01
  8.09569884e-01  8.10466749e-01  8.13176482e-01  8.15621259e-01
  8.16825261e-01  8.17381739e-01  8.19926518e-01  8.21646129e-01
  8.23026347e-01  8.23650558e-01  8.27619604e-01  8.29144490e-01
  8.31832875e-01  8.32602960e-01  8.33557432e-01  8.36425911e-01
  8.37530063e-01  8.40157398e-01  8.41431627e-01  8.42732396e-01
  8.44350348e-01  8.45852106e-01  8.46879168e-01  8.49521101e-01
  8.52500537e-01  8.53365219e-01  8.55042788e-01  8.56484531e-01
  8.57154371e-01  8.58623655e-01  8.60554670e-01  8.63167463e-01
  8.64378644e-01  8.65770814e-01  8.67020401e-01  8.69743885e-01
  8.71357366e-01  8.72645183e-01  8.75070400e-01  8.76816601e-01
  8.78659209e-01  8.80133749e-01  8.80947517e-01  8.83509789e-01
  8.85609674e-01  8.89119849e-01  8.89853095e-01  8.90796165e-01
  8.93246775e-01  8.97003013e-01  8.98583342e-01  8.99437827e-01
  9.01349811e-01  9.02661222e-01  9.04256019e-01  9.07302762e-01
  9.08496825e-01  9.09114315e-01  9.10924804e-01  9.12164172e-01
  9.13305834e-01  9.15746721e-01  9.16329530e-01  9.21814414e-01
  9.22143251e-01  9.23029917e-01  9.26468963e-01  9.27426201e-01
  9.29809397e-01  9.31400049e-01  9.33986918e-01  9.34388706e-01
  9.35712439e-01  9.36270144e-01  9.38406371e-01  9.41118778e-01
  9.42380212e-01  9.44922811e-01  9.47130896e-01  9.49285278e-01
  9.51081196e-01  9.51237816e-01  9.52161747e-01  9.54035427e-01
  9.55009083e-01  9.58084494e-01  9.59848740e-01  9.61918170e-01
  9.64038024e-01  9.66293469e-01  9.67515473e-01  9.68943407e-01
  9.69345083e-01  9.70990050e-01  9.73596257e-01  9.74096347e-01
  9.75000631e-01  9.77130799e-01  9.78086569e-01  9.80696011e-01
  9.81477637e-01  9.83402493e-01  9.85697729e-01  9.88323738e-01
  9.89127696e-01  9.90064336e-01  9.90987807e-01  9.94212108e-01
  9.94846311e-01  9.96540977e-01  9.98392797e-01  9.99783507e-01
  1.00055910e+00  1.00187320e+00  1.00257438e+00  1.00471330e+00
  1.00616527e+00  1.00855048e+00  1.01027169e+00  1.01113276e+00
  1.01308123e+00  1.01645609e+00  1.01808495e+00  1.01836887e+00
  1.01870630e+00  1.02204658e+00  1.02459134e+00  1.02629835e+00
  1.02710744e+00  1.02747868e+00  1.03088485e+00  1.03207520e+00
  1.03374864e+00  1.03822782e+00  1.03870335e+00  1.04005077e+00
  1.04205141e+00  1.04297357e+00  1.04508960e+00  1.04838813e+00
  1.05160651e+00  1.05443571e+00  1.05503258e+00  1.05601420e+00
  1.05864401e+00  1.05967834e+00  1.06060151e+00  1.06228180e+00
  1.06467524e+00  1.06691253e+00  1.06738403e+00  1.07024803e+00
  1.07100931e+00  1.07355025e+00  1.07545039e+00  1.07602558e+00
  1.07789860e+00  1.07975944e+00  1.08240907e+00  1.08333371e+00
  1.08497616e+00  1.08718169e+00  1.08726448e+00  1.08993207e+00
  1.09241743e+00  1.09310443e+00  1.09416918e+00  1.09560576e+00
  1.09610822e+00  1.09844731e+00  1.09984493e+00  1.10086532e+00
  1.10346915e+00  1.10384826e+00  1.10507582e+00  1.10652087e+00
  1.10741167e+00  1.10824793e+00  1.11003705e+00  1.11078746e+00
  1.11449209e+00  1.11586601e+00  1.11650716e+00  1.11820716e+00
  1.11997884e+00  1.12142066e+00  1.12406210e+00  1.12471331e+00
  1.12626639e+00  1.12866333e+00  1.12973203e+00  1.13104588e+00
  1.13424131e+00  1.13535671e+00  1.13736054e+00  1.13941139e+00
  1.14070676e+00  1.14240295e+00  1.14343115e+00  1.14514212e+00
  1.14877126e+00  1.15177181e+00  1.15266234e+00  1.15337610e+00
  1.15543565e+00  1.15611310e+00  1.15781220e+00  1.16075834e+00
  1.16379140e+00  1.16411550e+00  1.16543808e+00  1.16706571e+00
  1.16974490e+00  1.17099457e+00  1.17427085e+00  1.17589211e+00
  1.17634370e+00  1.17846863e+00  1.18074880e+00  1.18302631e+00
  1.18470970e+00  1.18736014e+00  1.18944346e+00  1.19024797e+00
  1.19313212e+00  1.19559671e+00  1.19705952e+00  1.19745169e+00
  1.19851071e+00  1.20052290e+00  1.20275235e+00  1.20332227e+00
  1.20603556e+00  1.20706382e+00  1.20802834e+00  1.21062560e+00
  1.21169531e+00  1.21414305e+00  1.21552866e+00  1.22051541e+00
  1.22129029e+00  1.22429524e+00  1.22528777e+00  1.22742209e+00
  1.22921290e+00  1.22963229e+00  1.23207594e+00  1.23407315e+00
  1.23644779e+00  1.23724924e+00  1.23878661e+00  1.24104751e+00
  1.24188131e+00  1.24334305e+00  1.24581084e+00  1.24920386e+00
  1.25071141e+00  1.25234698e+00  1.25432952e+00  1.25640438e+00
  1.25841715e+00  1.25934161e+00  1.26317082e+00  1.26638684e+00
  1.26728720e+00  1.26808337e+00  1.27109313e+00  1.27238817e+00
  1.27412374e+00  1.27495021e+00  1.27772533e+00  1.28128976e+00
  1.28195513e+00  1.28487061e+00  1.28620035e+00  1.28705042e+00
  1.28960822e+00  1.29107786e+00  1.29389761e+00  1.29684649e+00
  1.29905011e+00  1.30059829e+00  1.30154288e+00  1.30357823e+00
  1.30600651e+00  1.30689925e+00  1.30929789e+00  1.31193721e+00
  1.31227448e+00  1.31561604e+00  1.31816814e+00  1.31907884e+00
  1.32073421e+00  1.32235024e+00  1.32313673e+00  1.32505526e+00
  1.32697459e+00  1.32887187e+00  1.32973685e+00  1.33212525e+00
  1.33393673e+00  1.33545258e+00  1.33827902e+00  1.34012397e+00
  1.34378035e+00  1.34419692e+00  1.34501198e+00  1.34696932e+00
  1.34817057e+00  1.35109794e+00  1.35332289e+00  1.35385769e+00
  1.35591691e+00  1.35696934e+00  1.36057656e+00  1.36496901e+00
  1.36577081e+00  1.36662862e+00  1.36829943e+00  1.37206916e+00
  1.37401555e+00  1.37578937e+00  1.37728079e+00  1.38013349e+00
  1.38302051e+00  1.38518120e+00  1.38657960e+00  1.38904351e+00
  1.39007292e+00  1.39441751e+00  1.39565037e+00  1.39847788e+00
  1.39946274e+00  1.40458255e+00  1.40520542e+00  1.40759023e+00
  1.41026738e+00  1.41160664e+00  1.41588635e+00  1.41825360e+00
  1.41880723e+00  1.42016916e+00  1.42110519e+00  1.42411639e+00
  1.42669033e+00  1.42822566e+00  1.43045896e+00  1.43175220e+00
  1.43562282e+00  1.43983100e+00  1.44024631e+00  1.44260226e+00
  1.44393746e+00  1.44869638e+00  1.44931043e+00  1.45173137e+00
  1.45295871e+00  1.45357142e+00  1.45837089e+00  1.46190596e+00
  1.46394482e+00  1.46597637e+00  1.46655777e+00  1.46824378e+00
  1.47053367e+00  1.47417414e+00  1.47657028e+00  1.47982110e+00
  1.48319982e+00  1.48448448e+00  1.48627804e+00  1.48648450e+00
  1.49090047e+00  1.49334027e+00  1.49720075e+00  1.49733815e+00
  1.50181971e+00  1.50366268e+00  1.50503732e+00  1.50828038e+00
  1.51086872e+00  1.51510603e+00  1.51664963e+00  1.52141461e+00
  1.52330358e+00  1.52387635e+00  1.52607080e+00  1.52979371e+00
  1.53273169e+00  1.53424021e+00  1.53916641e+00  1.54306979e+00
  1.54503491e+00  1.54918586e+00  1.55064032e+00  1.55126726e+00
  1.55281852e+00  1.55472199e+00  1.55587090e+00  1.56009256e+00
  1.56566618e+00  1.56653100e+00  1.56952756e+00  1.57403746e+00
  1.57559626e+00  1.57942910e+00  1.58254325e+00  1.58333124e+00
  1.58544764e+00  1.58975850e+00  1.59611490e+00  1.59802199e+00
  1.60030919e+00  1.60459845e+00  1.60576035e+00  1.61053689e+00
  1.61357347e+00  1.61656219e+00  1.62025357e+00  1.62176190e+00
  1.62364296e+00  1.62871485e+00  1.63107582e+00  1.63405664e+00
  1.63611525e+00  1.64037462e+00  1.64401984e+00  1.64686888e+00
  1.65033945e+00  1.65775902e+00  1.65819254e+00  1.66037330e+00
  1.66248530e+00  1.66888663e+00  1.67341014e+00  1.67709669e+00
  1.68472888e+00  1.68671041e+00  1.69100451e+00  1.69211848e+00
  1.69663928e+00  1.70234612e+00  1.70277297e+00  1.71082027e+00
  1.71375292e+00  1.71846136e+00  1.72044666e+00  1.72226283e+00
  1.72421555e+00  1.73320340e+00  1.74127788e+00  1.74412446e+00
  1.74858440e+00  1.75560395e+00  1.75820264e+00  1.76882618e+00
  1.77670311e+00  1.77879155e+00  1.78354274e+00  1.78849388e+00
  1.79995473e+00  1.80138833e+00  1.80521938e+00  1.81195420e+00
  1.81346624e+00  1.81641556e+00  1.82405898e+00  1.83238579e+00
  1.83571950e+00  1.84279924e+00  1.84909643e+00  1.85542372e+00
  1.86086400e+00  1.87055897e+00  1.87595216e+00  1.87990763e+00
  1.88520063e+00  1.89391005e+00  1.90263376e+00  1.90924300e+00
  1.91992988e+00  1.92485057e+00  1.93757110e+00  1.94618869e+00
  1.95195212e+00  1.95828057e+00  1.96472635e+00  1.98885985e+00
  2.00636321e+00  2.02746025e+00  2.03500028e+00  2.04304998e+00
  2.07125874e+00  2.08873454e+00  2.13798985e+00  2.16423797e+00
  2.17838625e+00  2.19017507e+00  2.25383284e+00  2.27565610e+00
  2.30473724e+00  2.37258977e+00  2.42741188e+00  2.46031275e+00
  2.50220724e+00  2.50953395e+00  2.53221385e+00  2.55689959e+00
  2.60076962e+00  2.65005552e+00  2.68337126e+00  2.70936641e+00
  2.78359344e+00  2.80068212e+00  2.80875350e+00  2.85657972e+00
  2.86354102e+00  2.88828363e+00  2.97025331e+00  2.99749020e+00
  3.02706128e+00  3.07882429e+00  3.08868152e+00  3.14463166e+00
  3.14545062e+00  3.16802430e+00  3.17761528e+00  3.25160325e+00
  3.26268489e+00  3.28322792e+00  3.28974357e+00  3.30741181e+00
  3.31068497e+00  3.34115243e+00  3.36689280e+00  3.40455383e+00
  3.41714983e+00  3.42735303e+00  3.43209253e+00  3.44207145e+00
  3.44501356e+00  3.45179063e+00  3.49407437e+00  3.49597891e+00
  3.50921202e+00  3.52259888e+00  3.55014457e+00  3.55643900e+00
  3.58338248e+00  3.58782036e+00  3.58947367e+00  3.62545107e+00
  3.64716013e+00  3.66008794e+00  3.66546692e+00  3.67189241e+00
  3.68983503e+00  3.70488111e+00  3.71727889e+00  3.73281562e+00
  3.74200809e+00  3.75170518e+00  3.76647183e+00  3.77054559e+00
  3.79442004e+00  3.81571797e+00  3.82510212e+00  3.83021783e+00
  3.83342353e+00  3.84646388e+00  3.87208026e+00  3.88063872e+00
  3.88747149e+00  3.91656779e+00  3.92125970e+00  3.93481980e+00
  3.94685996e+00  3.97355243e+00  3.99618289e+00  4.02502431e+00
  4.03766450e+00  4.05480849e+00  4.09936435e+00  4.13914475e+00
  4.14250385e+00  4.22843566e+00  4.25722697e+00  4.26062645e+00
  4.27624256e+00  4.28892238e+00  4.29584340e+00  4.36944765e+00
  4.37747307e+00  4.38796241e+00  4.39881494e+00  4.41847746e+00
  4.42183626e+00  4.47157069e+00  4.47894986e+00  4.49496591e+00
  4.49583709e+00  4.57557958e+00  4.62735023e+00  4.62998820e+00
  4.65391906e+00  4.66643527e+00  4.78938872e+00  4.82438361e+00
  4.87189283e+00  4.87586758e+00  4.94388223e+00  4.98281066e+00
  4.98819055e+00  5.03082592e+00  5.06734490e+00  5.12742695e+00
  5.21888536e+00  5.30282585e+00  5.31284126e+00  5.36398247e+00
  5.40979968e+00  5.49656318e+00  5.49992770e+00  5.50317685e+00
  5.62399549e+00  5.68796103e+00  5.69914204e+00  5.74717476e+00
  5.75804822e+00  5.78268545e+00  5.82633314e+00  5.93395146e+00
  5.97243512e+00  6.00023777e+00  6.06225637e+00  6.08201887e+00
  6.11411931e+00  6.17011668e+00  6.20211939e+00  6.25072832e+00
  6.26627966e+00  6.38196040e+00  6.42711043e+00  6.45591567e+00
  6.50777187e+00  6.60438221e+00  6.64279149e+00  6.76881055e+00
  6.84911367e+00  6.87681897e+00  6.93159747e+00  7.11894732e+00
  7.14815253e+00  7.17668360e+00  7.22802310e+00  7.24576461e+00
  7.28047555e+00  7.31500520e+00  7.38898446e+00  7.39558638e+00
  7.45822607e+00  7.56013205e+00  7.62993743e+00  7.69340327e+00
  7.78662958e+00  7.81023268e+00  8.07922745e+00  8.11357662e+00
  8.15849266e+00  8.51082966e+00  1.13708181e+01  1.32027776e+01
  1.34288420e+01  1.41333201e+01  1.58782895e+01  1.76409048e+01]
    CPU time for vj and vk   7407.25 sec, wall time    232.13 sec
E1 = -3007.1180570382644  E_coul = 1297.6569238682928
cycle= 2 E= -593.102054928527  delta_E= 0.348  |g|= 1.12  |ddm|= 45.1
    CPU time for cycle= 2   7412.07 sec, wall time    232.70 sec
diis-norm(errvec)=9.09481
diis-c [-5.1704374   0.62573084  0.37426916]
  HOMO = -0.121358530234352  LUMO = -0.0332255667495077
  mo_energy =
[-2.06396660e+01 -2.06337016e+01 -2.05158527e+01 -1.15613623e+01
 -1.13737126e+01 -1.13720768e+01 -2.48059075e+00 -2.46793398e+00
 -2.46544275e+00 -2.45727955e+00 -2.45653213e+00 -2.45466015e+00
 -2.45186282e+00 -2.45067102e+00 -2.45037402e+00 -2.44915690e+00
 -2.44796869e+00 -2.44791750e+00 -2.44726543e+00 -2.44612550e+00
 -2.44582589e+00 -2.44527291e+00 -2.44444644e+00 -2.44348958e+00
 -2.44294317e+00 -2.44282287e+00 -2.44184701e+00 -2.44046168e+00
 -2.43807289e+00 -2.43730430e+00 -2.43536256e+00 -2.42896021e+00
 -2.42260284e+00 -2.41872556e+00 -2.41734813e+00 -2.41663244e+00
 -2.41148326e+00 -2.41070335e+00 -2.40994735e+00 -2.40983864e+00
 -1.67109454e+00 -1.49633116e+00 -1.49525517e+00 -1.17101215e+00
 -1.01687800e+00 -9.21112029e-01 -8.59228498e-01 -8.16571838e-01
 -7.74046925e-01 -7.20467700e-01 -7.06360665e-01 -7.01601547e-01
 -6.22221652e-01 -6.11239909e-01 -5.37088062e-01 -5.25890553e-01
 -5.24915362e-01 -3.37282883e-01 -2.97109238e-01 -2.96466072e-01
 -2.55732351e-01 -2.50568778e-01 -2.27533458e-01 -2.20524237e-01
 -2.10686289e-01 -2.07140285e-01 -1.72095707e-01 -1.69363680e-01
 -1.54926891e-01 -1.47993720e-01 -1.39115598e-01 -1.26636560e-01
 -1.23804933e-01 -1.21358530e-01 -3.32255667e-02 -2.54029339e-02
 -2.04059685e-02 -1.77158403e-02 -1.58525184e-02 -1.07608413e-02
 -5.15332049e-03 -1.85031691e-03  1.61544437e-03  4.59904666e-03
  5.27861054e-03  6.59857534e-03  1.50018256e-02  1.62603154e-02
  1.76102579e-02  1.99229437e-02  2.21126507e-02  2.62095977e-02
  2.80599165e-02  2.95280891e-02  3.20030217e-02  3.51412511e-02
  3.63315035e-02  3.74588040e-02  3.85283646e-02  4.31235215e-02
  4.39209026e-02  4.57279396e-02  4.67736474e-02  4.73349909e-02
  4.87814522e-02  5.07457246e-02  5.29153768e-02  5.46687247e-02
  5.58811082e-02  5.62270353e-02  5.69378368e-02  5.85392402e-02
  5.93236282e-02  6.05583508e-02  6.09507763e-02  6.29715322e-02
  6.45113458e-02  6.51769440e-02  6.73368852e-02  6.81165590e-02
  6.91512099e-02  7.07422845e-02  7.19399825e-02  7.23525126e-02
  7.31600199e-02  7.42651565e-02  7.56489677e-02  7.81956112e-02
  7.93736015e-02  8.02095863e-02  8.13437587e-02  8.21476030e-02
  8.33396751e-02  8.39098529e-02  8.42895124e-02  8.60096329e-02
  8.63374479e-02  8.77900030e-02  8.91722860e-02  8.93980133e-02
  9.08205025e-02  9.13964298e-02  9.38604886e-02  9.43461669e-02
  9.65581824e-02  9.71598577e-02  9.86187818e-02  9.88354930e-02
  9.99087953e-02  1.00544003e-01  1.02257614e-01  1.04280088e-01
  1.05239761e-01  1.07581898e-01  1.08181763e-01  1.10301230e-01
  1.11304383e-01  1.11669216e-01  1.12662142e-01  1.13838541e-01
  1.14432433e-01  1.16763520e-01  1.17884384e-01  1.18279783e-01
  1.19398604e-01  1.20703862e-01  1.22348863e-01  1.23658343e-01
  1.24658635e-01  1.25942970e-01  1.26727898e-01  1.27919640e-01
  1.29675711e-01  1.29885779e-01  1.31557986e-01  1.32948745e-01
  1.34904478e-01  1.35182267e-01  1.37030819e-01  1.38494963e-01
  1.39530321e-01  1.40670363e-01  1.41549734e-01  1.43181212e-01
  1.43769774e-01  1.44843901e-01  1.45632472e-01  1.46061441e-01
  1.47131943e-01  1.47725411e-01  1.48973870e-01  1.50329254e-01
  1.51203740e-01  1.52289597e-01  1.52812619e-01  1.53860010e-01
  1.54509407e-01  1.55558241e-01  1.56491461e-01  1.57684501e-01
  1.59319661e-01  1.59952325e-01  1.61178076e-01  1.62321164e-01
  1.63554794e-01  1.64987685e-01  1.67159692e-01  1.68134303e-01
  1.69627839e-01  1.70281916e-01  1.71762771e-01  1.72808045e-01
  1.74972536e-01  1.76365584e-01  1.79253299e-01  1.80059042e-01
  1.80372151e-01  1.81137792e-01  1.82879089e-01  1.83014614e-01
  1.85397497e-01  1.86654221e-01  1.87432543e-01  1.87522237e-01
  1.89166008e-01  1.91609252e-01  1.91996837e-01  1.93191334e-01
  1.95462241e-01  1.97121103e-01  1.98887742e-01  2.01662514e-01
  2.03627462e-01  2.04203930e-01  2.05750932e-01  2.06152597e-01
[...]
 -5.08776115e-01 -3.14562704e-01 -2.77565403e-01 -2.77314146e-01
 -2.37328327e-01 -2.34614274e-01 -2.12541216e-01 -2.06624936e-01
 -1.98951407e-01 -1.92182728e-01 -1.71244402e-01 -1.60280219e-01
 -1.51927654e-01 -1.40401890e-01 -1.35118138e-01 -1.20061576e-01
 -1.18981573e-01 -1.10919480e-01 -1.22078472e-02 -6.55640470e-03
 -8.52013887e-04  3.07547278e-04  2.10213474e-03  5.55055809e-03
  8.46595375e-03  1.04185108e-02  1.28572594e-02  1.39039304e-02
  1.79341529e-02  1.89545079e-02  2.33004379e-02  2.50225684e-02
  2.73686259e-02  2.86419984e-02  3.23303714e-02  3.27944637e-02
  3.42417830e-02  3.68653054e-02  3.75324522e-02  4.15015813e-02
  4.34700249e-02  4.41338953e-02  4.47028549e-02  4.89722231e-02
  4.91726270e-02  5.11022638e-02  5.29734331e-02  5.37709498e-02
  5.42323968e-02  5.63747918e-02  5.82029631e-02  5.95074212e-02
  6.04890467e-02  6.09751458e-02  6.15624529e-02  6.30065963e-02
  6.33945523e-02  6.47223959e-02  6.64465767e-02  6.79766592e-02
  6.90813373e-02  7.04187727e-02  7.16507414e-02  7.32344613e-02
  7.46208758e-02  7.58188010e-02  7.74813452e-02  7.78015209e-02
  7.86981551e-02  7.90285809e-02  8.07554491e-02  8.23601796e-02
  8.29985457e-02  8.42791792e-02  8.51488540e-02  8.68283493e-02
  8.72448085e-02  8.86964495e-02  8.88005352e-02  9.04497553e-02
  9.15487027e-02  9.27383145e-02  9.32664769e-02  9.47489386e-02
  9.56692180e-02  9.57102835e-02  9.70151913e-02  9.89021818e-02
  1.00455316e-01  1.01407704e-01  1.01835727e-01  1.03793060e-01
  1.05627368e-01  1.06793418e-01  1.07787037e-01  1.08501111e-01
  1.10128372e-01  1.10563723e-01  1.12801447e-01  1.13146659e-01
  1.15443888e-01  1.16222160e-01  1.17265107e-01  1.18318722e-01
  1.20839028e-01  1.21471647e-01  1.22947360e-01  1.23599285e-01
  1.24135905e-01  1.25377235e-01  1.25491754e-01  1.27778983e-01
  1.28084676e-01  1.29295155e-01  1.30795170e-01  1.31847329e-01
  1.32334150e-01  1.35243619e-01  1.36382146e-01  1.38073374e-01
  1.39837561e-01  1.40442871e-01  1.41284081e-01  1.43382009e-01
  1.43982200e-01  1.45351581e-01  1.46077245e-01  1.48262738e-01
  1.49587441e-01  1.50478983e-01  1.51551695e-01  1.51859056e-01
  1.53323362e-01  1.54250182e-01  1.54653152e-01  1.55224507e-01
  1.56473861e-01  1.56840506e-01  1.58550166e-01  1.59821358e-01
  1.61266216e-01  1.62225604e-01  1.62990599e-01  1.63672282e-01
  1.64896303e-01  1.66668173e-01  1.67519324e-01  1.68659883e-01
  1.69801943e-01  1.70046508e-01  1.73313448e-01  1.73921804e-01
  1.76507257e-01  1.76983932e-01  1.79234419e-01  1.80067164e-01
  1.81899669e-01  1.84447765e-01  1.85676258e-01  1.85978879e-01
  1.88692576e-01  1.89281722e-01  1.90333813e-01  1.90512440e-01
  1.92268146e-01  1.93953780e-01  1.94485998e-01  1.95051781e-01
  1.97603069e-01  1.99041600e-01  2.00425156e-01  2.02298214e-01
  2.05906082e-01  2.08054560e-01  2.09089104e-01  2.09835258e-01
  2.11546445e-01  2.12238292e-01  2.14043672e-01  2.15403258e-01
  2.16127200e-01  2.16991965e-01  2.17966074e-01  2.20152236e-01
  2.23059022e-01  2.24005787e-01  2.25137364e-01  2.26490983e-01
  2.27444659e-01  2.28642779e-01  2.30095227e-01  2.30479959e-01
  2.30904523e-01  2.32160824e-01  2.33615590e-01  2.34388986e-01
  2.35922076e-01  2.36643187e-01  2.37433619e-01  2.38532137e-01
  2.40218496e-01  2.41262101e-01  2.41408632e-01  2.42166513e-01
  2.44219317e-01  2.46534804e-01  2.47166705e-01  2.49716330e-01
  2.50163807e-01  2.52268881e-01  2.55939658e-01  2.56936609e-01
  2.57969840e-01  2.60564733e-01  2.60784367e-01  2.61726554e-01
  2.63578505e-01  2.63762782e-01  2.64996427e-01  2.66351905e-01
  2.68909733e-01  2.70201979e-01  2.72028505e-01  2.73402623e-01
  2.74839685e-01  2.76041395e-01  2.76440658e-01  2.78305951e-01
  2.80834688e-01  2.84108691e-01  2.84691959e-01  2.85822287e-01
  2.88271201e-01  2.91115939e-01  2.91900401e-01  2.94179571e-01
  2.95372859e-01  2.97600699e-01  2.99725243e-01  3.02828263e-01
  3.03851689e-01  3.05675779e-01  3.09186783e-01  3.10308512e-01
  3.13707887e-01  3.15224150e-01  3.17514778e-01  3.18610361e-01
  3.20996642e-01  3.23108188e-01  3.24905099e-01  3.26048066e-01
  3.29570510e-01  3.30089376e-01  3.30353086e-01  3.33033818e-01
  3.34161282e-01  3.35439564e-01  3.37887788e-01  3.39003656e-01
  3.39662985e-01  3.43115596e-01  3.43902108e-01  3.46367383e-01
  3.47980992e-01  3.48431152e-01  3.49599462e-01  3.52103592e-01
  3.52330331e-01  3.53591436e-01  3.56888261e-01  3.58019098e-01
  3.58921427e-01  3.61393474e-01  3.62407821e-01  3.63015843e-01
  3.63790119e-01  3.65930439e-01  3.67691026e-01  3.69910307e-01
  3.72016897e-01  3.72921193e-01  3.73994190e-01  3.77610230e-01
  3.79493139e-01  3.82141836e-01  3.83495167e-01  3.86089812e-01
  3.86689952e-01  3.89594612e-01  3.89815065e-01  3.92994456e-01
  3.93338730e-01  3.95187976e-01  3.96829855e-01  3.98876501e-01
  3.99087129e-01  4.01838623e-01  4.03030171e-01  4.04952966e-01
  4.06487194e-01  4.08621928e-01  4.09412707e-01  4.11820994e-01
  4.12611301e-01  4.15812304e-01  4.16669481e-01  4.17011358e-01
  4.17517990e-01  4.19085009e-01  4.20044420e-01  4.21106599e-01
  4.23148937e-01  4.24737164e-01  4.25993867e-01  4.27735299e-01
  4.29483773e-01  4.30291201e-01  4.33149445e-01  4.34110320e-01
  4.34935730e-01  4.37790751e-01  4.39100098e-01  4.39397767e-01
  4.41196173e-01  4.43077049e-01  4.44491359e-01  4.46576197e-01
  4.46876983e-01  4.48259771e-01  4.49653011e-01  4.51176847e-01
  4.52357845e-01  4.53434910e-01  4.55563815e-01  4.56312852e-01
  4.56649222e-01  4.59909170e-01  4.61568687e-01  4.63548221e-01
  4.64763379e-01  4.65054267e-01  4.65508500e-01  4.66903888e-01
  4.68696872e-01  4.70017007e-01  4.70866750e-01  4.72099538e-01
  4.73016814e-01  4.73625290e-01  4.75396697e-01  4.76800240e-01
  4.77903632e-01  4.78412075e-01  4.80404408e-01  4.82544367e-01
  4.83605883e-01  4.85711228e-01  4.86709532e-01  4.87263596e-01
  4.88878242e-01  4.90281431e-01  4.91127204e-01  4.92729815e-01
  4.94156621e-01  4.94684530e-01  4.96515038e-01  4.96702432e-01
  4.98663633e-01  4.99759745e-01  5.02161645e-01  5.03457447e-01
  5.04993009e-01  5.06840444e-01  5.09077392e-01  5.10916649e-01
  5.12390278e-01  5.13268384e-01  5.14532089e-01  5.17886964e-01
  5.19513835e-01  5.20281456e-01  5.20643579e-01  5.22535779e-01
  5.22748668e-01  5.26102601e-01  5.27966164e-01  5.28862351e-01
  5.29674246e-01  5.31145512e-01  5.31931572e-01  5.32786104e-01
  5.34056857e-01  5.36781743e-01  5.37716016e-01  5.39939075e-01
  5.40323070e-01  5.41338602e-01  5.42791359e-01  5.43455450e-01
  5.45115356e-01  5.45653082e-01  5.47381817e-01  5.49070635e-01
  5.51450825e-01  5.51748720e-01  5.53128758e-01  5.53885060e-01
  5.55763522e-01  5.56328985e-01  5.57160868e-01  5.58330182e-01
  5.59968908e-01  5.61342971e-01  5.63914358e-01  5.66105240e-01
  5.67405758e-01  5.68211435e-01  5.68966639e-01  5.71192879e-01
  5.72877259e-01  5.74064845e-01  5.74196116e-01  5.76967368e-01
  5.78063886e-01  5.79462274e-01  5.80430921e-01  5.82622415e-01
  5.84615025e-01  5.86602483e-01  5.87988388e-01  5.90339471e-01
  5.91451220e-01  5.92535430e-01  5.96320687e-01  5.98987775e-01
  5.99990486e-01  6.03422467e-01  6.03759372e-01  6.07082970e-01
  6.08586614e-01  6.10850879e-01  6.11690935e-01  6.12896890e-01
  6.14399623e-01  6.16269781e-01  6.17742883e-01  6.20179212e-01
  6.22069898e-01  6.25099557e-01  6.25965981e-01  6.27698574e-01
  6.29072857e-01  6.29869382e-01  6.34161172e-01  6.36062495e-01
  6.37045281e-01  6.39365193e-01  6.42810280e-01  6.43148893e-01
  6.46163235e-01  6.49197735e-01  6.49867374e-01  6.51650605e-01
  6.52675550e-01  6.53402194e-01  6.57302414e-01  6.59765030e-01
  6.61218561e-01  6.62473747e-01  6.65310171e-01  6.65917051e-01
  6.69777210e-01  6.71173476e-01  6.71910285e-01  6.75020896e-01
  6.77011650e-01  6.79404762e-01  6.79791846e-01  6.82943140e-01
  6.84068546e-01  6.84425823e-01  6.88095399e-01  6.90197120e-01
  6.91449193e-01  6.93391598e-01  6.95719904e-01  6.96869581e-01
  6.97466962e-01  6.98792880e-01  7.01739708e-01  7.03908583e-01
  7.05604047e-01  7.07249416e-01  7.09650838e-01  7.12251724e-01
  7.13021400e-01  7.14565956e-01  7.16067188e-01  7.16689932e-01
  7.20840529e-01  7.21992055e-01  7.24144896e-01  7.25559422e-01
  7.26317975e-01  7.30752663e-01  7.32147286e-01  7.34373405e-01
  7.36812617e-01  7.36905260e-01  7.38323970e-01  7.39760699e-01
  7.42025514e-01  7.42858118e-01  7.43736475e-01  7.46538563e-01
  7.46934511e-01  7.48821230e-01  7.50985197e-01  7.52620625e-01
  7.54296435e-01  7.54477002e-01  7.56958489e-01  7.59085163e-01
  7.60599134e-01  7.62170606e-01  7.63400534e-01  7.65465056e-01
  7.67262800e-01  7.67569203e-01  7.70017092e-01  7.70555308e-01
  7.73533739e-01  7.76579842e-01  7.78866171e-01  7.80710531e-01
  7.83091473e-01  7.84428558e-01  7.86941953e-01  7.87716902e-01
  7.89914090e-01  7.91111844e-01  7.92519349e-01  7.93755188e-01
  7.96361230e-01  7.98002241e-01  7.98769735e-01  8.01132165e-01
  8.04474292e-01  8.06423158e-01  8.07209049e-01  8.08356776e-01
  8.08900566e-01  8.11535773e-01  8.13165951e-01  8.14916936e-01
  8.15520633e-01  8.16736904e-01  8.17962162e-01  8.18671466e-01
  8.22248942e-01  8.23578978e-01  8.26707951e-01  8.27170867e-01
  8.29680610e-01  8.32152355e-01  8.33714063e-01  8.34695177e-01
  8.37141180e-01  8.38688185e-01  8.39838197e-01  8.41443314e-01
  8.44174879e-01  8.46981116e-01  8.47957917e-01  8.49854044e-01
  8.51838460e-01  8.53010903e-01  8.53898627e-01  8.55731646e-01
  8.57590987e-01  8.59313443e-01  8.61588706e-01  8.61973320e-01
  8.65463080e-01  8.67916600e-01  8.68687351e-01  8.70354120e-01
  8.73168496e-01  8.73874801e-01  8.75442774e-01  8.78042063e-01
  8.78702696e-01  8.79649363e-01  8.82780283e-01  8.84173720e-01
  8.84717421e-01  8.87017528e-01  8.87865870e-01  8.88965389e-01
  8.92370271e-01  8.93289324e-01  8.96161186e-01  8.99238911e-01
  9.02387046e-01  9.03673248e-01  9.05417868e-01  9.06531844e-01
  9.08531687e-01  9.10377690e-01  9.11438598e-01  9.11882204e-01
  9.15343446e-01  9.16609451e-01  9.17754878e-01  9.18659390e-01
  9.19274127e-01  9.20748993e-01  9.21730974e-01  9.22993335e-01
  9.24625278e-01  9.26493629e-01  9.29875354e-01  9.30386875e-01
  9.30558662e-01  9.34406247e-01  9.36730256e-01  9.37304782e-01
  9.39794626e-01  9.40649665e-01  9.43237378e-01  9.43815991e-01
  9.45589192e-01  9.47374578e-01  9.50596905e-01  9.51165479e-01
  9.52578174e-01  9.52915468e-01  9.54982836e-01  9.56924232e-01
  9.58212542e-01  9.59460837e-01  9.60358956e-01  9.62323359e-01
  9.64222823e-01  9.65618356e-01  9.66231171e-01  9.68858006e-01
  9.69351591e-01  9.70955879e-01  9.73262718e-01  9.74658784e-01
  9.76092519e-01  9.78868716e-01  9.79375386e-01  9.81521701e-01
  9.86034950e-01  9.87498276e-01  9.89241889e-01  9.90629325e-01
  9.92167582e-01  9.93843004e-01  9.95142737e-01  9.96644987e-01
  9.97726036e-01  9.98720374e-01  9.99443490e-01  1.00126556e+00
  1.00563262e+00  1.00883793e+00  1.01017864e+00  1.01320892e+00
  1.01419064e+00  1.01525215e+00  1.01614446e+00  1.01737887e+00
  1.01888756e+00  1.02110805e+00  1.02174526e+00  1.02400402e+00
  1.02564718e+00  1.02737512e+00  1.02885856e+00  1.02932558e+00
  1.03030393e+00  1.03105415e+00  1.03324145e+00  1.03465048e+00
  1.03675912e+00  1.03746166e+00  1.03844304e+00  1.04067340e+00
  1.04286728e+00  1.04393778e+00  1.04467113e+00  1.04543855e+00
  1.04685912e+00  1.04752337e+00  1.04991593e+00  1.05237311e+00
  1.05359520e+00  1.05455958e+00  1.05637627e+00  1.05777949e+00
  1.05901228e+00  1.06247631e+00  1.06383263e+00  1.06533087e+00
  1.06586760e+00  1.06765555e+00  1.06866138e+00  1.07049870e+00
  1.07148448e+00  1.07376875e+00  1.07517858e+00  1.07583171e+00
  1.07645042e+00  1.07907685e+00  1.08059928e+00  1.08302361e+00
  1.08482471e+00  1.08556543e+00  1.08637682e+00  1.08851629e+00
  1.09093685e+00  1.09352414e+00  1.09438756e+00  1.09586897e+00
  1.09769498e+00  1.09909468e+00  1.10097194e+00  1.10321064e+00
  1.10514665e+00  1.10694736e+00  1.10754492e+00  1.10818173e+00
  1.11084505e+00  1.11353113e+00  1.11505044e+00  1.11600676e+00
  1.11632437e+00  1.11703655e+00  1.11987163e+00  1.12252554e+00
  1.12439280e+00  1.12713321e+00  1.12901144e+00  1.12948757e+00
  1.13117251e+00  1.13154550e+00  1.13427598e+00  1.13572728e+00
  1.13725197e+00  1.13935882e+00  1.14061355e+00  1.14083105e+00
  1.14340684e+00  1.14588463e+00  1.14845330e+00  1.14918939e+00
  1.15268307e+00  1.15474879e+00  1.15663100e+00  1.16046088e+00
  1.16111061e+00  1.16221259e+00  1.16281042e+00  1.16686201e+00
  1.16846504e+00  1.17178687e+00  1.17300897e+00  1.17388476e+00
  1.17621777e+00  1.17686753e+00  1.18099233e+00  1.18273486e+00
  1.18461308e+00  1.18879000e+00  1.19112008e+00  1.19261440e+00
  1.19380259e+00  1.19543169e+00  1.19660325e+00  1.19932844e+00
  1.20022416e+00  1.20198866e+00  1.20303065e+00  1.20676144e+00
  1.20711434e+00  1.21202380e+00  1.21313317e+00  1.21450674e+00
  1.21557347e+00  1.21638927e+00  1.21852983e+00  1.22246601e+00
  1.22264564e+00  1.22327923e+00  1.22612911e+00  1.22735759e+00
  1.22869597e+00  1.23165818e+00  1.23229663e+00  1.23438026e+00
  1.23614402e+00  1.23772311e+00  1.23891401e+00  1.23940721e+00
  1.24154216e+00  1.24287859e+00  1.24510967e+00  1.24695846e+00
  1.24812978e+00  1.24934088e+00  1.25139128e+00  1.25287001e+00
  1.25459131e+00  1.25750030e+00  1.25852422e+00  1.25986621e+00
  1.26121623e+00  1.26229513e+00  1.26360894e+00  1.26611865e+00
  1.27020225e+00  1.27117391e+00  1.27231952e+00  1.27456206e+00
  1.27616964e+00  1.27779664e+00  1.28065267e+00  1.28336104e+00
  1.28509475e+00  1.28593927e+00  1.28706510e+00  1.28936895e+00
  1.29099656e+00  1.29239822e+00  1.29595740e+00  1.29822170e+00
  1.29922300e+00  1.30170978e+00  1.30244949e+00  1.30410624e+00
  1.30544600e+00  1.30764645e+00  1.30877720e+00  1.31275814e+00
  1.31466888e+00  1.31497821e+00  1.31856603e+00  1.31967727e+00
  1.32388397e+00  1.32450471e+00  1.32571435e+00  1.32628093e+00
  1.32897277e+00  1.33079128e+00  1.33124668e+00  1.33284987e+00
  1.33808364e+00  1.33820545e+00  1.33933640e+00  1.34125516e+00
  1.34543643e+00  1.34736984e+00  1.34878812e+00  1.35106267e+00
  1.35156225e+00  1.35501334e+00  1.35677412e+00  1.35787123e+00
  1.35932612e+00  1.36097675e+00  1.36272009e+00  1.36342879e+00
  1.36698020e+00  1.36756121e+00  1.37023474e+00  1.37176250e+00
  1.37310158e+00  1.37685971e+00  1.37948176e+00  1.38059960e+00
  1.38250662e+00  1.38401087e+00  1.38504023e+00  1.39010445e+00
  1.39073187e+00  1.39180968e+00  1.39256358e+00  1.39512398e+00
  1.39625641e+00  1.39761584e+00  1.40282089e+00  1.40434767e+00
  1.40670723e+00  1.40903457e+00  1.41111212e+00  1.41350362e+00
  1.41416596e+00  1.41784949e+00  1.42001654e+00  1.42239844e+00
  1.42559530e+00  1.42798174e+00  1.43101559e+00  1.43354467e+00
  1.43634633e+00  1.44026735e+00  1.44152363e+00  1.44503024e+00
  1.44605082e+00  1.45042940e+00  1.45256257e+00  1.45298635e+00
  1.45489556e+00  1.46035785e+00  1.46134023e+00  1.46368495e+00
  1.46832166e+00  1.46929029e+00  1.47103786e+00  1.47380795e+00
  1.47655946e+00  1.47994211e+00  1.48312678e+00  1.48457785e+00
  1.48621167e+00  1.48749510e+00  1.48940778e+00  1.49327302e+00
  1.49545984e+00  1.50206054e+00  1.50351814e+00  1.50630659e+00
  1.50748840e+00  1.50974434e+00  1.51547124e+00  1.51898432e+00
  1.52064513e+00  1.52374605e+00  1.52563432e+00  1.52766210e+00
  1.52983781e+00  1.53163657e+00  1.53404382e+00  1.53899571e+00
  1.54262250e+00  1.54610410e+00  1.54795206e+00  1.55134408e+00
  1.55599395e+00  1.55720967e+00  1.55887550e+00  1.55920745e+00
  1.56078284e+00  1.56832476e+00  1.57281132e+00  1.57724273e+00
  1.57965800e+00  1.58650347e+00  1.59035089e+00  1.59122666e+00
  1.59908322e+00  1.60088312e+00  1.60291331e+00  1.60406387e+00
  1.60574184e+00  1.61112149e+00  1.61743283e+00  1.62256158e+00
  1.63070844e+00  1.63238294e+00  1.63508587e+00  1.64210074e+00
  1.64455806e+00  1.64969894e+00  1.65571919e+00  1.66426472e+00
  1.66961891e+00  1.67597899e+00  1.67821485e+00  1.68288538e+00
  1.68669474e+00  1.69106969e+00  1.69324904e+00  1.69689516e+00
  1.70144780e+00  1.70293661e+00  1.70645407e+00  1.70840367e+00
  1.71291685e+00  1.72184860e+00  1.72516978e+00  1.73289778e+00
  1.73651937e+00  1.74793217e+00  1.75554916e+00  1.76543654e+00
  1.76962702e+00  1.78002291e+00  1.78354947e+00  1.79414878e+00
  1.79713969e+00  1.81233731e+00  1.82527683e+00  1.83794408e+00
  1.84365840e+00  1.87773743e+00  1.88472754e+00  1.89407408e+00
  1.90422257e+00  1.95000309e+00  1.96006590e+00  1.98521884e+00
  1.99584293e+00  2.01125070e+00  2.02299483e+00  2.03324100e+00
  2.08947291e+00  2.14440959e+00  2.18544399e+00  2.27491666e+00
  2.30914145e+00  2.37649743e+00  2.43892090e+00  2.45878766e+00
  2.49630562e+00  2.53231793e+00  2.53925647e+00  2.57398609e+00
  2.64255061e+00  2.70271961e+00  2.72187711e+00  2.73689450e+00
  2.80766023e+00  2.83566938e+00  2.84704758e+00  2.89085232e+00
  2.89350304e+00  2.91857433e+00  2.99889721e+00  3.02534837e+00
  3.08533239e+00  3.12675552e+00  3.14188387e+00  3.16249676e+00
  3.19502480e+00  3.21717541e+00  3.24067208e+00  3.28464487e+00
  3.31060663e+00  3.31216891e+00  3.33974172e+00  3.34864405e+00
  3.36384447e+00  3.38806771e+00  3.40121004e+00  3.41547064e+00
  3.43057129e+00  3.43650071e+00  3.45921720e+00  3.46575527e+00
  3.47081126e+00  3.48335884e+00  3.48603583e+00  3.49000769e+00
  3.51818072e+00  3.53833295e+00  3.54651074e+00  3.55821305e+00
  3.57438628e+00  3.58143216e+00  3.60078739e+00  3.62196289e+00
  3.62389215e+00  3.63351961e+00  3.64544867e+00  3.66231236e+00
  3.67042299e+00  3.68341086e+00  3.70091516e+00  3.70763773e+00
  3.71310475e+00  3.72138424e+00  3.75350706e+00  3.76316906e+00
  3.77202924e+00  3.78425863e+00  3.78677946e+00  3.79399385e+00
  3.80851140e+00  3.81932816e+00  3.82755621e+00  3.83734451e+00
  3.86830563e+00  3.87153429e+00  3.91126882e+00  3.94498597e+00
  3.97173235e+00  3.98570573e+00  4.03976913e+00  4.04513612e+00
  4.05872162e+00  4.07091864e+00  4.09032654e+00  4.11102365e+00
  4.13433035e+00  4.16384886e+00  4.17635430e+00  4.21029478e+00
  4.26480142e+00  4.27130808e+00  4.29706923e+00  4.30740066e+00
  4.31696241e+00  4.32801450e+00  4.36345638e+00  4.40286171e+00
  4.41856017e+00  4.43178383e+00  4.44212324e+00  4.45758684e+00
  4.52457544e+00  4.53177051e+00  4.53699791e+00  4.65642517e+00
  4.67236670e+00  4.69854084e+00  4.72550133e+00  4.75706899e+00
  4.79701317e+00  4.84213562e+00  4.85346120e+00  4.95908582e+00
  5.03196117e+00  5.06789155e+00  5.10374987e+00  5.15508078e+00
  5.20363777e+00  5.33986416e+00  5.34348837e+00  5.41293712e+00
  5.45226969e+00  5.51372705e+00  5.51597592e+00  5.54547145e+00
  5.58725210e+00  5.61377698e+00  5.62815749e+00  5.69781827e+00
  5.76831432e+00  5.77742769e+00  5.86117494e+00  5.89449547e+00
  5.99929141e+00  6.00924451e+00  6.10447923e+00  6.12722274e+00
  6.13588123e+00  6.15576979e+00  6.21583860e+00  6.22224403e+00
  6.30320507e+00  6.40348339e+00  6.45985981e+00  6.48063733e+00
  6.50833092e+00  6.60753339e+00  6.66050162e+00  6.73679853e+00
  6.81764822e+00  6.87840701e+00  6.91544195e+00  6.99175783e+00
  7.01899858e+00  7.05621912e+00  7.12615116e+00  7.22713419e+00
  7.24428288e+00  7.31670815e+00  7.36183518e+00  7.38373692e+00
  7.44269680e+00  7.49256387e+00  7.54131933e+00  7.55093695e+00
  7.76868296e+00  7.77871964e+00  7.95877074e+00  8.02629943e+00
  8.11905100e+00  8.46572455e+00  1.13611921e+01  1.32019666e+01
  1.34289158e+01  1.41685475e+01  1.59792380e+01  1.76234789e+01]
    CPU time for vj and vk   5260.34 sec, wall time    164.90 sec
E1 = -3027.557195758502  E_coul = 1317.3300458251074
cycle= 50 E= -593.86807169195  delta_E= 8.51e-08  |g|= 0.00028  |ddm|= 0.00295
    CPU time for cycle= 50   5265.05 sec, wall time    165.97 sec
    CPU time for scf_cycle 312493.13 sec, wall time   9818.75 sec
    CPU time for SCF 312493.15 sec, wall time   9818.75 sec
SCF not converged.
SCF energy = -593.86807169195
