#INFO: **** input file is /burg/ccce/users/eav2136/projects/batteries/01_mp2/hf_script.py ****
#!/usr/bin/env python3
from pyscf import gto, scf, mp
import sys
from fileutils import dump
import h5py

mol = gto.Mole()
mol.verbose = 10
mol.atom = f"geom_{sys.argv[1]}.xyz"
mol.basis = "ccpvtz"
mol.unit = "ANG"
mol.build()

mf = scf.RHF(mol)
# determine the output of mf.kernel()
mf.kernel()

conv = mf.converged
e_tot = mf.e_tot
mo_energy = mf.mo_energy
mo_coeff = mf.mo_coeff

dataout = {}
dataout["e_tot"] = e_tot
dataout["conv"] = conv
dump(dataout, f"data/hf_geom_{sys.argv[1]}.json")

with h5py.File(f"data/hf_geom_{sys.argv[1]}.h5", "w") as f:
    f.create_dataset("mo_energy", data=mo_energy)
    f.create_dataset("mo_coeff", data=mo_coeff)#INFO: ******************** input file end ********************


System: uname_result(system='Linux', node='g103', release='4.18.0-193.el8.x86_64', version='#1 SMP Fri Mar 27 14:35:58 UTC 2020', machine='x86_64')  Threads 32
Python 3.10.12 (main, Jul 29 2023, 11:27:27) [GCC 13.2.0]
numpy 1.25.1  scipy 1.10.1
Date: Fri Jan 19 11:31:38 2024
PySCF version 2.0.1
PySCF path  /burg/berkelbach/users/eav2136/builds/pyscf/projected-cvs/pyscf
GIT ORIG_HEAD 0bfbc692adf3ea63b8a509210433219cd1c472a2
GIT HEAD (branch projected-cvs) e14caaa2dddc538b9be2d86f01e5b456fc92da36

[ENV] PYSCF_TMPDIR /burg/ccce/users/eav2136/projects/batteries/01_mp2/tmp
[ENV] PYSCF_MAX_MEMORY 700000
[CONFIG] DEBUG = False
[CONFIG] MAX_MEMORY = 700000
[CONFIG] TMPDIR = /burg/ccce/users/eav2136/projects/batteries/01_mp2/tmp
[CONFIG] UNIT = angstrom
[CONFIG] VERBOSE = 3
[CONFIG] conf_file = None
[INPUT] verbose = 10
[INPUT] max_memory = 700000 
[INPUT] num. atoms = 22
[INPUT] num. electrons = 82
[INPUT] charge = 0
[INPUT] spin (= nelec alpha-beta = 2S) = 0
[INPUT] symmetry False subgroup None
[INPUT] Mole.unit = ANG
[INPUT]  1 C      4.889700000000   4.599650000000  10.258310000000 AA    9.240193831286   8.692078768856  19.385396400887 Bohr
[INPUT]  2 O      4.870170000000   4.245790000000   8.952570000000 AA    9.203287480073   8.023380282417  16.917905410997 Bohr
[INPUT]  3 C      5.310840000000   5.193710000000   8.233300000000 AA   10.036033091385   9.814689470415  15.558682101382 Bohr
[INPUT]  4 O      5.765780000000   6.111200000000   8.982240000000 AA   10.895745094495  11.548494292442  16.973973585113 Bohr
[INPUT]  5 C      5.774150000000   5.702340000000  10.272330000000 AA   10.911562102157  10.775860869152  19.411890361153 Bohr
[INPUT]  6 O      5.299720000000   5.216150000000   7.112960000000 AA   10.015019336880   9.857094924650  13.441546334986 Bohr
[INPUT]  7 H      5.212360000000   3.798320000000  10.814180000000 AA    9.849932862638   7.177784533458  20.435838461749 Bohr
[INPUT]  8 H      3.953110000000   4.871240000000  10.548100000000 AA    7.470295240279   9.205309487026  19.933020134525 Bohr
[INPUT]  9 H      5.464720000000   6.479910000000  10.867980000000 AA   10.326824147433  12.245255211830  20.537505727251 Bohr
[INPUT] 10 H      6.716790000000   5.418990000000  10.529430000000 AA   12.692893536217  10.240406971757  19.897738947779 Bohr
[INPUT] 11 Li     5.263950000000   5.263950000000   5.263950000000 AA    9.947423833404   9.947423833404   9.947423833404 Bohr
[INPUT] 12 Li     5.263950000000   1.754650000000   5.263950000000 AA    9.947423833404   3.315807944468   9.947423833404 Bohr
[INPUT] 13 Li     8.773250000000   5.263950000000   5.263950000000 AA   16.579039722340   9.947423833404   9.947423833404 Bohr
[INPUT] 14 Li     1.754650000000   5.263950000000   5.263950000000 AA    3.315807944468   9.947423833404   9.947423833404 Bohr
[INPUT] 15 Li     5.263950000000   8.773250000000   5.263950000000 AA    9.947423833404  16.579039722340   9.947423833404 Bohr
[INPUT] 16 Li     7.018600000000   3.509300000000   3.509300000000 AA   13.263231777872   6.631615888936   6.631615888936 Bohr
[INPUT] 17 Li     3.509300000000   3.509300000000   3.509300000000 AA    6.631615888936   6.631615888936   6.631615888936 Bohr
[INPUT] 18 Li     7.018600000000   7.018600000000   3.509300000000 AA   13.263231777872  13.263231777872   6.631615888936 Bohr
[INPUT] 19 Li     3.509300000000   7.018600000000   3.509300000000 AA    6.631615888936  13.263231777872   6.631615888936 Bohr
[INPUT] 20 Li     8.773250000000   1.754650000000   5.263950000000 AA   16.579039722340   3.315807944468   9.947423833404 Bohr
[INPUT] 21 Li     1.754650000000   1.754650000000   5.263950000000 AA    3.315807944468   3.315807944468   9.947423833404 Bohr
[INPUT] 22 Li     8.773250000000   8.773250000000   5.263950000000 AA   16.579039722340  16.579039722340   9.947423833404 Bohr
[INPUT] ---------------- BASIS SET ---------------- 
[INPUT] l, kappa, [nprim/nctr], expnt,             c_1 c_2 ...
[INPUT] Li
[INPUT] 0    0    [9    /2   ]  5988              0.000133 -2.1e-05
                                898.9             0.001025 -0.000161
                                205.9             0.005272 -0.00082
                                59.24             0.020929 -0.003326
                                19.87             0.06634 -0.010519
                                7.406             0.165775 -0.028097
                                2.93              0.315038 -0.055936
                                1.189             0.393523 -0.099237
                                0.4798            0.19087 -0.112189
[INPUT] 0    0    [1    /1   ]  0.07509              1
[INPUT] 0    0    [1    /1   ]  0.02832              1
[INPUT] 1    0    [3    /1   ]  3.266             0.00863
                                0.6511            0.047538
                                0.1696            0.209772
[INPUT] 1    0    [1    /1   ]  0.05578              1
[INPUT] 1    0    [1    /1   ]  0.0205               1
[INPUT] 2    0    [1    /1   ]  0.1874               1
[INPUT] 2    0    [1    /1   ]  0.0801               1
[INPUT] 3    0    [1    /1   ]  0.1829               1
[INPUT] H
[INPUT] 0    0    [3    /1   ]  33.87             0.006068
                                5.095             0.045308
                                1.159             0.202822
[INPUT] 0    0    [1    /1   ]  0.3258               1
[INPUT] 0    0    [1    /1   ]  0.1027               1
[INPUT] 1    0    [1    /1   ]  1.407                1
[INPUT] 1    0    [1    /1   ]  0.388                1
[INPUT] 2    0    [1    /1   ]  1.057                1
[INPUT] O
[INPUT] 0    0    [8    /2   ]  15330             0.000508 -0.000115
                                2299              0.003929 -0.000895
                                522.4             0.020243 -0.004636
                                147.3             0.079181 -0.018724
                                47.55             0.230687 -0.058463
                                16.76             0.433118 -0.136463
                                6.207             0.35026 -0.17574
                                0.6882            -0.008154 0.603418
[INPUT] 0    0    [1    /1   ]  1.752                1
[INPUT] 0    0    [1    /1   ]  0.2384               1
[INPUT] 1    0    [3    /1   ]  34.46             0.015928
                                7.749             0.09974
                                2.28              0.310492
[INPUT] 1    0    [1    /1   ]  0.7156               1
[INPUT] 1    0    [1    /1   ]  0.214                1
[INPUT] 2    0    [1    /1   ]  2.314                1
[INPUT] 2    0    [1    /1   ]  0.645                1
[INPUT] 3    0    [1    /1   ]  1.428                1
[INPUT] C
[INPUT] 0    0    [8    /2   ]  8236              0.000531 -0.000113
                                1235              0.004108 -0.000878
                                280.8             0.021087 -0.00454
                                79.27             0.081853 -0.018133
                                25.59             0.234817 -0.05576
                                8.997             0.434401 -0.126895
                                3.319             0.346129 -0.170352
                                0.3643            -0.008983 0.598684
[INPUT] 0    0    [1    /1   ]  0.9059               1
[INPUT] 0    0    [1    /1   ]  0.1285               1
[INPUT] 1    0    [3    /1   ]  18.71             0.014031
                                4.133             0.086866
                                1.2               0.290216
[INPUT] 1    0    [1    /1   ]  0.3827               1
[INPUT] 1    0    [1    /1   ]  0.1209               1
[INPUT] 2    0    [1    /1   ]  1.097                1
[INPUT] 2    0    [1    /1   ]  0.318                1
[INPUT] 3    0    [1    /1   ]  0.761                1

nuclear repulsion = 497.36314769577
number of shells = 186
number of NR pGTOs = 832
number of NR cGTOs = 596
basis = ccpvtz
ecp = {}
bas 0, expnt(s) = [8.236e+03 1.235e+03 2.808e+02 7.927e+01 2.559e+01 8.997e+00 3.319e+00
 3.643e-01]
bas 1, expnt(s) = [0.9059]
bas 2, expnt(s) = [0.1285]
bas 3, expnt(s) = [18.71   4.133  1.2  ]
bas 4, expnt(s) = [0.3827]
bas 5, expnt(s) = [0.1209]
bas 6, expnt(s) = [1.097]
bas 7, expnt(s) = [0.318]
bas 8, expnt(s) = [0.761]
bas 9, expnt(s) = [1.533e+04 2.299e+03 5.224e+02 1.473e+02 4.755e+01 1.676e+01 6.207e+00
 6.882e-01]
bas 10, expnt(s) = [1.752]
bas 11, expnt(s) = [0.2384]
bas 12, expnt(s) = [34.46   7.749  2.28 ]
bas 13, expnt(s) = [0.7156]
bas 14, expnt(s) = [0.214]
bas 15, expnt(s) = [2.314]
bas 16, expnt(s) = [0.645]
bas 17, expnt(s) = [1.428]
bas 18, expnt(s) = [8.236e+03 1.235e+03 2.808e+02 7.927e+01 2.559e+01 8.997e+00 3.319e+00
 3.643e-01]
bas 19, expnt(s) = [0.9059]
bas 20, expnt(s) = [0.1285]
bas 21, expnt(s) = [18.71   4.133  1.2  ]
bas 22, expnt(s) = [0.3827]
bas 23, expnt(s) = [0.1209]
bas 24, expnt(s) = [1.097]
bas 25, expnt(s) = [0.318]
bas 26, expnt(s) = [0.761]
bas 27, expnt(s) = [1.533e+04 2.299e+03 5.224e+02 1.473e+02 4.755e+01 1.676e+01 6.207e+00
 6.882e-01]
bas 28, expnt(s) = [1.752]
bas 29, expnt(s) = [0.2384]
bas 30, expnt(s) = [34.46   7.749  2.28 ]
bas 31, expnt(s) = [0.7156]
bas 32, expnt(s) = [0.214]
bas 33, expnt(s) = [2.314]
bas 34, expnt(s) = [0.645]
bas 35, expnt(s) = [1.428]
bas 36, expnt(s) = [8.236e+03 1.235e+03 2.808e+02 7.927e+01 2.559e+01 8.997e+00 3.319e+00
 3.643e-01]
bas 37, expnt(s) = [0.9059]
bas 38, expnt(s) = [0.1285]
bas 39, expnt(s) = [18.71   4.133  1.2  ]
bas 40, expnt(s) = [0.3827]
bas 41, expnt(s) = [0.1209]
bas 42, expnt(s) = [1.097]
bas 43, expnt(s) = [0.318]
bas 44, expnt(s) = [0.761]
bas 45, expnt(s) = [1.533e+04 2.299e+03 5.224e+02 1.473e+02 4.755e+01 1.676e+01 6.207e+00
 6.882e-01]
bas 46, expnt(s) = [1.752]
bas 47, expnt(s) = [0.2384]
bas 48, expnt(s) = [34.46   7.749  2.28 ]
bas 49, expnt(s) = [0.7156]
bas 50, expnt(s) = [0.214]
bas 51, expnt(s) = [2.314]
bas 52, expnt(s) = [0.645]
bas 53, expnt(s) = [1.428]
bas 54, expnt(s) = [33.87   5.095  1.159]
bas 55, expnt(s) = [0.3258]
bas 56, expnt(s) = [0.1027]
bas 57, expnt(s) = [1.407]
bas 58, expnt(s) = [0.388]
bas 59, expnt(s) = [1.057]
bas 60, expnt(s) = [33.87   5.095  1.159]
bas 61, expnt(s) = [0.3258]
bas 62, expnt(s) = [0.1027]
bas 63, expnt(s) = [1.407]
bas 64, expnt(s) = [0.388]
bas 65, expnt(s) = [1.057]
bas 66, expnt(s) = [33.87   5.095  1.159]
bas 67, expnt(s) = [0.3258]
bas 68, expnt(s) = [0.1027]
bas 69, expnt(s) = [1.407]
bas 70, expnt(s) = [0.388]
bas 71, expnt(s) = [1.057]
bas 72, expnt(s) = [33.87   5.095  1.159]
bas 73, expnt(s) = [0.3258]
bas 74, expnt(s) = [0.1027]
bas 75, expnt(s) = [1.407]
bas 76, expnt(s) = [0.388]
bas 77, expnt(s) = [1.057]
bas 78, expnt(s) = [5.988e+03 8.989e+02 2.059e+02 5.924e+01 1.987e+01 7.406e+00 2.930e+00
 1.189e+00 4.798e-01]
bas 79, expnt(s) = [0.07509]
bas 80, expnt(s) = [0.02832]
bas 81, expnt(s) = [3.266  0.6511 0.1696]
bas 82, expnt(s) = [0.05578]
bas 83, expnt(s) = [0.0205]
bas 84, expnt(s) = [0.1874]
bas 85, expnt(s) = [0.0801]
bas 86, expnt(s) = [0.1829]
bas 87, expnt(s) = [5.988e+03 8.989e+02 2.059e+02 5.924e+01 1.987e+01 7.406e+00 2.930e+00
 1.189e+00 4.798e-01]
bas 88, expnt(s) = [0.07509]
bas 89, expnt(s) = [0.02832]
bas 90, expnt(s) = [3.266  0.6511 0.1696]
bas 91, expnt(s) = [0.05578]
bas 92, expnt(s) = [0.0205]
bas 93, expnt(s) = [0.1874]
bas 94, expnt(s) = [0.0801]
bas 95, expnt(s) = [0.1829]
bas 96, expnt(s) = [5.988e+03 8.989e+02 2.059e+02 5.924e+01 1.987e+01 7.406e+00 2.930e+00
 1.189e+00 4.798e-01]
bas 97, expnt(s) = [0.07509]
bas 98, expnt(s) = [0.02832]
bas 99, expnt(s) = [3.266  0.6511 0.1696]
bas 100, expnt(s) = [0.05578]
bas 101, expnt(s) = [0.0205]
bas 102, expnt(s) = [0.1874]
bas 103, expnt(s) = [0.0801]
bas 104, expnt(s) = [0.1829]
bas 105, expnt(s) = [5.988e+03 8.989e+02 2.059e+02 5.924e+01 1.987e+01 7.406e+00 2.930e+00
 1.189e+00 4.798e-01]
bas 106, expnt(s) = [0.07509]
bas 107, expnt(s) = [0.02832]
bas 108, expnt(s) = [3.266  0.6511 0.1696]
bas 109, expnt(s) = [0.05578]
bas 110, expnt(s) = [0.0205]
bas 111, expnt(s) = [0.1874]
bas 112, expnt(s) = [0.0801]
bas 113, expnt(s) = [0.1829]
bas 114, expnt(s) = [5.988e+03 8.989e+02 2.059e+02 5.924e+01 1.987e+01 7.406e+00 2.930e+00
 1.189e+00 4.798e-01]
bas 115, expnt(s) = [0.07509]
bas 116, expnt(s) = [0.02832]
bas 117, expnt(s) = [3.266  0.6511 0.1696]
bas 118, expnt(s) = [0.05578]
bas 119, expnt(s) = [0.0205]
bas 120, expnt(s) = [0.1874]
bas 121, expnt(s) = [0.0801]
bas 122, expnt(s) = [0.1829]
bas 123, expnt(s) = [5.988e+03 8.989e+02 2.059e+02 5.924e+01 1.987e+01 7.406e+00 2.930e+00
 1.189e+00 4.798e-01]
bas 124, expnt(s) = [0.07509]
bas 125, expnt(s) = [0.02832]
bas 126, expnt(s) = [3.266  0.6511 0.1696]
bas 127, expnt(s) = [0.05578]
bas 128, expnt(s) = [0.0205]
bas 129, expnt(s) = [0.1874]
bas 130, expnt(s) = [0.0801]
bas 131, expnt(s) = [0.1829]
bas 132, expnt(s) = [5.988e+03 8.989e+02 2.059e+02 5.924e+01 1.987e+01 7.406e+00 2.930e+00
 1.189e+00 4.798e-01]
bas 133, expnt(s) = [0.07509]
bas 134, expnt(s) = [0.02832]
bas 135, expnt(s) = [3.266  0.6511 0.1696]
bas 136, expnt(s) = [0.05578]
bas 137, expnt(s) = [0.0205]
bas 138, expnt(s) = [0.1874]
bas 139, expnt(s) = [0.0801]
bas 140, expnt(s) = [0.1829]
bas 141, expnt(s) = [5.988e+03 8.989e+02 2.059e+02 5.924e+01 1.987e+01 7.406e+00 2.930e+00
 1.189e+00 4.798e-01]
bas 142, expnt(s) = [0.07509]
bas 143, expnt(s) = [0.02832]
bas 144, expnt(s) = [3.266  0.6511 0.1696]
bas 145, expnt(s) = [0.05578]
bas 146, expnt(s) = [0.0205]
bas 147, expnt(s) = [0.1874]
bas 148, expnt(s) = [0.0801]
bas 149, expnt(s) = [0.1829]
bas 150, expnt(s) = [5.988e+03 8.989e+02 2.059e+02 5.924e+01 1.987e+01 7.406e+00 2.930e+00
 1.189e+00 4.798e-01]
bas 151, expnt(s) = [0.07509]
bas 152, expnt(s) = [0.02832]
bas 153, expnt(s) = [3.266  0.6511 0.1696]
bas 154, expnt(s) = [0.05578]
bas 155, expnt(s) = [0.0205]
bas 156, expnt(s) = [0.1874]
bas 157, expnt(s) = [0.0801]
bas 158, expnt(s) = [0.1829]
bas 159, expnt(s) = [5.988e+03 8.989e+02 2.059e+02 5.924e+01 1.987e+01 7.406e+00 2.930e+00
 1.189e+00 4.798e-01]
bas 160, expnt(s) = [0.07509]
bas 161, expnt(s) = [0.02832]
bas 162, expnt(s) = [3.266  0.6511 0.1696]
bas 163, expnt(s) = [0.05578]
bas 164, expnt(s) = [0.0205]
bas 165, expnt(s) = [0.1874]
bas 166, expnt(s) = [0.0801]
bas 167, expnt(s) = [0.1829]
bas 168, expnt(s) = [5.988e+03 8.989e+02 2.059e+02 5.924e+01 1.987e+01 7.406e+00 2.930e+00
 1.189e+00 4.798e-01]
bas 169, expnt(s) = [0.07509]
bas 170, expnt(s) = [0.02832]
bas 171, expnt(s) = [3.266  0.6511 0.1696]
bas 172, expnt(s) = [0.05578]
bas 173, expnt(s) = [0.0205]
bas 174, expnt(s) = [0.1874]
bas 175, expnt(s) = [0.0801]
bas 176, expnt(s) = [0.1829]
bas 177, expnt(s) = [5.988e+03 8.989e+02 2.059e+02 5.924e+01 1.987e+01 7.406e+00 2.930e+00
 1.189e+00 4.798e-01]
bas 178, expnt(s) = [0.07509]
bas 179, expnt(s) = [0.02832]
bas 180, expnt(s) = [3.266  0.6511 0.1696]
bas 181, expnt(s) = [0.05578]
bas 182, expnt(s) = [0.0205]
bas 183, expnt(s) = [0.1874]
bas 184, expnt(s) = [0.0801]
bas 185, expnt(s) = [0.1829]
CPU time:         0.67
arg.atm = [[  6  20   1  23   0   0]
 [  8  24   1  27   0   0]
 [  6  28   1  31   0   0]
 [  8  32   1  35   0   0]
 [  6  36   1  39   0   0]
 [  8  40   1  43   0   0]
 [  1  44   1  47   0   0]
 [  1  48   1  51   0   0]
 [  1  52   1  55   0   0]
 [  1  56   1  59   0   0]
 [  3  60   1  63   0   0]
 [  3  64   1  67   0   0]
 [  3  68   1  71   0   0]
 [  3  72   1  75   0   0]
 [  3  76   1  79   0   0]
 [  3  80   1  83   0   0]
 [  3  84   1  87   0   0]
 [  3  88   1  91   0   0]
 [  3  92   1  95   0   0]
 [  3  96   1  99   0   0]
 [  3 100   1 103   0   0]
 [  3 104   1 107   0   0]]
arg.bas = [[  0   0   8 ... 215 223   0]
 [  0   0   1 ... 239 240   0]
 [  0   0   1 ... 241 242   0]
 ...
 [ 21   2   1 ... 149 150   0]
 [ 21   2   1 ... 151 152   0]
 [ 21   3   1 ... 153 154   0]]
arg.env = [ 0.00000000e+00  0.00000000e+00  0.00000000e+00  0.00000000e+00
  0.00000000e+00  0.00000000e+00  0.00000000e+00  0.00000000e+00
  0.00000000e+00  0.00000000e+00  0.00000000e+00  0.00000000e+00
  0.00000000e+00  0.00000000e+00  0.00000000e+00  0.00000000e+00
  0.00000000e+00  0.00000000e+00  0.00000000e+00  0.00000000e+00
  9.24019383e+00  8.69207877e+00  1.93853964e+01  0.00000000e+00
  9.20328748e+00  8.02338028e+00  1.69179054e+01  0.00000000e+00
  1.00360331e+01  9.81468947e+00  1.55586821e+01  0.00000000e+00
  1.08957451e+01  1.15484943e+01  1.69739736e+01  0.00000000e+00
  1.09115621e+01  1.07758609e+01  1.94118904e+01  0.00000000e+00
  1.00150193e+01  9.85709492e+00  1.34415463e+01  0.00000000e+00
  9.84993286e+00  7.17778453e+00  2.04358385e+01  0.00000000e+00
  7.47029524e+00  9.20530949e+00  1.99330201e+01  0.00000000e+00
  1.03268241e+01  1.22452552e+01  2.05375057e+01  0.00000000e+00
  1.26928935e+01  1.02404070e+01  1.98977389e+01  0.00000000e+00
  9.94742383e+00  9.94742383e+00  9.94742383e+00  0.00000000e+00
  9.94742383e+00  3.31580794e+00  9.94742383e+00  0.00000000e+00
  1.65790397e+01  9.94742383e+00  9.94742383e+00  0.00000000e+00
  3.31580794e+00  9.94742383e+00  9.94742383e+00  0.00000000e+00
  9.94742383e+00  1.65790397e+01  9.94742383e+00  0.00000000e+00
  1.32632318e+01  6.63161589e+00  6.63161589e+00  0.00000000e+00
  6.63161589e+00  6.63161589e+00  6.63161589e+00  0.00000000e+00
  1.32632318e+01  1.32632318e+01  6.63161589e+00  0.00000000e+00
  6.63161589e+00  1.32632318e+01  6.63161589e+00  0.00000000e+00
  1.65790397e+01  3.31580794e+00  9.94742383e+00  0.00000000e+00
  3.31580794e+00  3.31580794e+00  9.94742383e+00  0.00000000e+00
  1.65790397e+01  1.65790397e+01  9.94742383e+00  0.00000000e+00
  5.98800000e+03  8.98900000e+02  2.05900000e+02  5.92400000e+01
  1.98700000e+01  7.40600000e+00  2.93000000e+00  1.18900000e+00
  4.79800000e-01  2.29069316e-01  4.25756548e-01  7.25056076e-01
  1.13074246e+00  1.57971158e+00  1.88304523e+00  1.78512072e+00
  1.13373211e+00  2.78411257e-01 -1.33552750e-01 -2.46934407e-01
 -4.16416863e-01 -6.63522613e-01 -9.24900580e-01 -1.17847379e+00
 -1.17034612e+00 -1.05567981e+00 -6.04251387e-01  7.50900000e-02
  3.62411193e-01  2.83200000e-02  1.74415453e-01  3.26600000e+00
  6.51100000e-01  1.69600000e-01  4.55280795e-01  3.34078737e-01
  2.74333054e-01  5.57800000e-02  7.90828897e-02  2.05000000e-02
  2.26295917e-02  1.87400000e-01  1.39275961e-01  8.01000000e-02
  3.14692425e-02  1.82900000e-01  4.31510332e-02  3.38700000e+01
  5.09500000e+00  1.15900000e+00  9.04334519e-01  1.63100455e+00
  2.40491525e+00  3.25800000e-01  1.08950276e+00  1.02700000e-01
  4.58345379e-01  1.40700000e+00  4.47045795e+00  3.88000000e-01
  8.93354953e-01  1.05700000e+00  2.87515071e+00  1.53300000e+04
  2.29900000e+03  5.22400000e+02  1.47300000e+02  4.75500000e+01
  1.67600000e+01  6.20700000e+00  6.88200000e-01  1.81067529e+00
  3.37486577e+00  5.72265412e+00  8.66150357e+00  1.08070276e+01
  9.28179538e+00  3.56346173e+00 -1.59395830e-02 -6.86527364e-01
 -1.28759909e+00 -2.19507417e+00 -3.43047366e+00 -4.58719692e+00
 -4.89805685e+00 -2.99457591e+00  1.97563931e+00  1.75200000e+00
  3.84738459e+00  2.38400000e-01  8.61975084e-01  3.44600000e+01
  7.74900000e+00  2.28000000e+00  1.00262994e+01  9.72213774e+00
  6.55849668e+00  7.15600000e-01  1.92009319e+00  2.14000000e-01
  4.24621137e-01  2.31400000e+00  1.13283134e+01  6.45000000e-01
  1.21132000e+00  1.42800000e+00  4.39692268e+00  8.23600000e+03
  1.23500000e+03  2.80800000e+02  7.92700000e+01  2.55900000e+01
  8.99700000e+00  3.31900000e+00  3.64300000e-01  1.18480296e+00
  2.20874210e+00  3.73316324e+00  5.61216719e+00  6.89519583e+00
  5.82409515e+00  2.19663441e+00 -1.08712663e-02 -4.28969670e-01
 -8.03166571e-01 -1.36745981e+00 -2.11525239e+00 -2.78571299e+00
 -2.89453423e+00 -1.83934657e+00  1.23268730e+00  9.05900000e-01
  2.34598494e+00  1.28500000e-01  5.42241022e-01  1.87100000e+01
  4.13300000e+00  1.20000000e+00  4.47572721e+00  4.19627876e+00
  2.98800046e+00  3.82700000e-01  8.78127282e-01  1.20900000e-01
  2.07977938e-01  1.09700000e+00  3.06825171e+00  3.18000000e-01
  3.51379844e-01  7.61000000e-01  1.06690522e+00]
ecpbas  = []


******** <class 'pyscf.scf.hf.RHF'> ********
method = RHF
initial guess = minao
damping factor = 0
level_shift factor = 0
DIIS = <class 'pyscf.scf.diis.CDIIS'>
diis_start_cycle = 1
diis_space = 8
SCF conv_tol = 1e-09
SCF conv_tol_grad = None
SCF max_cycles = 50
direct_scf = True
direct_scf_tol = 1e-13
chkfile to save SCF result = /burg/ccce/users/eav2136/projects/batteries/01_mp2/tmp/tmp0vz8y6we
max_memory 700000 MB (current use 94 MB)
Set gradient conv threshold to 3.16228e-05
Nelec from initial guess = 81.9979963675695
E1 = -1569.8975868293323  E_coul = 639.2582358046782
init E= -433.276203328884
cond(S) = 127942.22070354767
    CPU time for initialize scf    663.21 sec, wall time     21.10 sec
  HOMO = -0.103059482701595  LUMO = -0.0585369297999195
  mo_energy =
[-2.08436739e+01 -2.07936222e+01 -2.07926309e+01 -1.13786482e+01
 -1.13528437e+01 -1.13477233e+01 -2.51228007e+00 -2.50111773e+00
 -2.49956131e+00 -2.49929060e+00 -2.49500977e+00 -2.49241998e+00
 -2.49189742e+00 -2.49045413e+00 -2.49006431e+00 -2.48545988e+00
 -2.48540340e+00 -2.48531577e+00 -2.16874816e+00 -1.79604571e+00
 -1.65780600e+00 -1.33704452e+00 -1.05210454e+00 -9.01040240e-01
 -8.03048157e-01 -7.84909435e-01 -6.88546594e-01 -6.61934665e-01
 -6.21268297e-01 -5.69968000e-01 -5.00272817e-01 -4.93826918e-01
 -4.37822212e-01 -4.10295657e-01 -4.03510715e-01 -3.24558880e-01
 -2.56984970e-01 -2.35240760e-01 -1.38819052e-01 -1.04888413e-01
 -1.03059483e-01 -5.85369298e-02 -5.84946635e-02 -2.49326257e-02
 -2.07239432e-02 -1.49245859e-02 -4.00026979e-03 -3.19079089e-03
  5.01223227e-03  1.73743118e-02  2.07198449e-02  2.70691550e-02
  2.98777474e-02  3.17870726e-02  3.87897435e-02  3.94265008e-02
  4.56161261e-02  4.66127627e-02  4.76322601e-02  4.80714866e-02
  5.35782573e-02  5.40863290e-02  5.73578275e-02  5.74774121e-02
  6.04658362e-02  6.31395295e-02  6.74350868e-02  6.93401138e-02
  7.02882438e-02  7.27747650e-02  7.50371255e-02  7.81038021e-02
  7.95673792e-02  8.06325996e-02  8.43236678e-02  8.67552084e-02
  8.71015179e-02  9.14038860e-02  9.19686310e-02  9.37772397e-02
  9.49185043e-02  9.71536177e-02  1.02559033e-01  1.03727205e-01
  1.06324524e-01  1.09063045e-01  1.10143105e-01  1.12263723e-01
  1.16300921e-01  1.18459098e-01  1.19154688e-01  1.22282706e-01
  1.24373942e-01  1.31973852e-01  1.32893412e-01  1.38328363e-01
  1.43256236e-01  1.44286256e-01  1.47632562e-01  1.49343951e-01
  1.51301337e-01  1.58436069e-01  1.59941304e-01  1.62131047e-01
  1.64171714e-01  1.70065353e-01  1.78109761e-01  1.80757516e-01
  1.81808530e-01  1.82826881e-01  1.84425831e-01  1.87532869e-01
  1.90044543e-01  1.91293674e-01  1.94374816e-01  1.96775868e-01
  1.99199428e-01  2.02390868e-01  2.03541211e-01  2.06638200e-01
  2.09282940e-01  2.13141696e-01  2.18214176e-01  2.20655015e-01
  2.26827817e-01  2.30783103e-01  2.31967554e-01  2.33394107e-01
  2.34449857e-01  2.37702033e-01  2.39470237e-01  2.42783542e-01
  2.51900115e-01  2.58019241e-01  2.59813753e-01  2.61625877e-01
  2.69307210e-01  2.69949083e-01  2.76112633e-01  2.78977316e-01
  2.84244768e-01  2.86736444e-01  2.90154186e-01  2.96583963e-01
  2.96982089e-01  3.01524408e-01  3.02456159e-01  3.04422760e-01
  3.07054851e-01  3.10262610e-01  3.16785008e-01  3.26127826e-01
  3.26437105e-01  3.29860728e-01  3.31006908e-01  3.38773170e-01
  3.42430127e-01  3.44330849e-01  3.48072755e-01  3.54826215e-01
  3.56467697e-01  3.58872398e-01  3.65767068e-01  3.66632840e-01
  3.67439597e-01  3.71041615e-01  3.83113637e-01  3.84232486e-01
  3.86068642e-01  3.88479088e-01  3.89632862e-01  3.90076433e-01
  3.93114192e-01  3.95639627e-01  3.97409789e-01  3.98045003e-01
  4.02767305e-01  4.05447024e-01  4.07773000e-01  4.09454678e-01
  4.18101210e-01  4.21345662e-01  4.24920488e-01  4.28241213e-01
  4.32577885e-01  4.36879060e-01  4.43913744e-01  4.45131218e-01
  4.46493719e-01  4.47827171e-01  4.50527640e-01  4.57030157e-01
  4.58964510e-01  4.61751750e-01  4.63690351e-01  4.66202689e-01
  4.74870206e-01  4.80043918e-01  4.83150171e-01  4.84349338e-01
  4.87989386e-01  4.90955779e-01  4.92864901e-01  4.93563589e-01
  4.99746999e-01  5.04050948e-01  5.07712684e-01  5.08944719e-01
  5.13597346e-01  5.15218773e-01  5.18032144e-01  5.20967326e-01
  5.21234281e-01  5.25619258e-01  5.27667826e-01  5.29134875e-01
  5.37001745e-01  5.39383057e-01  5.42959755e-01  5.44765299e-01
  5.48621623e-01  5.51106133e-01  5.60820726e-01  5.62673377e-01
  5.66439638e-01  5.72753131e-01  5.75586525e-01  5.80382105e-01
  5.83986250e-01  5.88486789e-01  5.92507923e-01  6.00517342e-01
  6.04199270e-01  6.10272969e-01  6.14233189e-01  6.16501853e-01
  6.21035717e-01  6.29463357e-01  6.35903628e-01  6.41449900e-01
  6.50818435e-01  6.53148792e-01  6.57735068e-01  6.61048947e-01
  6.69244475e-01  6.74319072e-01  6.74974429e-01  6.78255574e-01
  6.81873074e-01  6.85113016e-01  6.91955055e-01  6.93843428e-01
  6.96171813e-01  6.98472137e-01  7.00461138e-01  7.01347517e-01
  7.05434658e-01  7.09125312e-01  7.10327994e-01  7.13369505e-01
  7.18416550e-01  7.19218953e-01  7.23228737e-01  7.25936926e-01
  7.30116161e-01  7.37165355e-01  7.39864634e-01  7.44929682e-01
  7.46390930e-01  7.49830270e-01  7.53947976e-01  7.57129513e-01
  7.58912084e-01  7.61402509e-01  7.64914109e-01  7.66869237e-01
  7.73030300e-01  7.78514079e-01  7.81565107e-01  7.84721037e-01
  7.86354274e-01  7.96386192e-01  8.02426676e-01  8.03167122e-01
  8.07425583e-01  8.08811387e-01  8.12333988e-01  8.19974656e-01
  8.24254471e-01  8.25504310e-01  8.26610425e-01  8.29189850e-01
  8.33017141e-01  8.33996657e-01  8.39821418e-01  8.41492911e-01
  8.44080296e-01  8.48448511e-01  8.50108997e-01  8.50976051e-01
  8.56881015e-01  8.62526233e-01  8.64653298e-01  8.67969984e-01
  8.78143911e-01  8.81304378e-01  8.83911936e-01  8.89065372e-01
  8.93067759e-01  8.93677865e-01  8.98468983e-01  9.01471206e-01
  9.04227599e-01  9.05390291e-01  9.11810057e-01  9.12779268e-01
  9.15021612e-01  9.18477769e-01  9.22145753e-01  9.25194375e-01
  9.31078104e-01  9.38763558e-01  9.39423650e-01  9.43373586e-01
  9.51002922e-01  9.55594677e-01  9.58800104e-01  9.60682546e-01
  9.63593212e-01  9.65102574e-01  9.67908365e-01  9.72134279e-01
  9.77082451e-01  9.79285511e-01  9.81576891e-01  9.83991870e-01
  9.88496457e-01  9.93857893e-01  9.95441228e-01  9.99031551e-01
  1.00163189e+00  1.00835339e+00  1.01182136e+00  1.01899308e+00
  1.02101028e+00  1.02609892e+00  1.02819498e+00  1.03066813e+00
  1.03487105e+00  1.04013712e+00  1.04376862e+00  1.05006056e+00
  1.05310028e+00  1.05529673e+00  1.06190041e+00  1.06842969e+00
  1.07484862e+00  1.07739775e+00  1.08902937e+00  1.09185455e+00
  1.09494328e+00  1.09721001e+00  1.10803923e+00  1.10965200e+00
  1.12078323e+00  1.12383465e+00  1.12557280e+00  1.12828802e+00
  1.12979322e+00  1.13254761e+00  1.13360289e+00  1.14104423e+00
  1.14645401e+00  1.14724472e+00  1.15623873e+00  1.16272566e+00
  1.16703859e+00  1.17279155e+00  1.17665467e+00  1.17874090e+00
  1.18619737e+00  1.19003800e+00  1.19302442e+00  1.19539111e+00
  1.20502044e+00  1.20974720e+00  1.21435879e+00  1.22160209e+00
  1.22387851e+00  1.23103934e+00  1.23930217e+00  1.24100820e+00
  1.24765119e+00  1.25057515e+00  1.25745899e+00  1.26045737e+00
  1.26504825e+00  1.26878706e+00  1.27029898e+00  1.27516959e+00
  1.28397283e+00  1.28436684e+00  1.29319284e+00  1.29742149e+00
  1.29978996e+00  1.30311120e+00  1.31359832e+00  1.32351110e+00
  1.33408769e+00  1.33818049e+00  1.34778338e+00  1.35126056e+00
  1.36432510e+00  1.36794985e+00  1.38051855e+00  1.38136976e+00
  1.41416541e+00  1.42252038e+00  1.42989029e+00  1.43153283e+00
  1.43381371e+00  1.47706217e+00  1.49924356e+00  1.51739915e+00
  1.54074995e+00  1.59205468e+00  1.59440378e+00  1.62459541e+00
  1.64753212e+00  1.68059582e+00  1.72639230e+00  1.76649024e+00
  1.80755198e+00  1.86089650e+00  1.87444019e+00  1.89644627e+00
  1.94777558e+00  1.99551062e+00  2.04729729e+00  2.06181187e+00
  2.13913115e+00  2.20942360e+00  2.26632125e+00  2.31179865e+00
  2.36109937e+00  2.40349093e+00  2.45095882e+00  2.45681956e+00
  2.48731149e+00  2.54422511e+00  2.61006862e+00  2.67428221e+00
  2.68526940e+00  2.68587508e+00  2.73323810e+00  2.79141276e+00
  2.83678875e+00  2.84537018e+00  2.84775942e+00  2.87502476e+00
  2.95115246e+00  2.96876554e+00  3.00566917e+00  3.06135851e+00
  3.08204620e+00  3.12520057e+00  3.14037779e+00  3.16359354e+00
  3.18096902e+00  3.19559716e+00  3.19980064e+00  3.24185034e+00
  3.27346345e+00  3.28872793e+00  3.30410070e+00  3.31651921e+00
  3.33596144e+00  3.34484855e+00  3.35001141e+00  3.37468936e+00
  3.39362513e+00  3.40321319e+00  3.40578241e+00  3.43440885e+00
  3.47118443e+00  3.47783064e+00  3.50032408e+00  3.52303910e+00
  3.52626805e+00  3.53853184e+00  3.56105637e+00  3.58796437e+00
  3.60401283e+00  3.61523780e+00  3.67377039e+00  3.68245503e+00
  3.68564419e+00  3.73894766e+00  3.76416399e+00  3.79510301e+00
  3.85074837e+00  3.87052596e+00  3.90313576e+00  3.91968604e+00
  3.95296336e+00  3.97332265e+00  4.02904136e+00  4.03995724e+00
  4.05925975e+00  4.06703922e+00  4.07533621e+00  4.09776911e+00
  4.14941716e+00  4.24417748e+00  4.27704508e+00  4.28562693e+00
  4.29491041e+00  4.38052291e+00  4.38838941e+00  4.42757193e+00
  4.43392350e+00  4.49965913e+00  4.52813594e+00  4.53029500e+00
  4.59184088e+00  4.63736363e+00  4.65641675e+00  4.66855952e+00
  4.70679553e+00  4.78451441e+00  4.81561525e+00  4.93762129e+00
  4.99538497e+00  5.03099999e+00  5.05146435e+00  5.11436708e+00
  5.13021406e+00  5.29167214e+00  5.31126741e+00  5.37221752e+00
  5.42513638e+00  5.42579284e+00  5.43081816e+00  5.47761822e+00
  5.51085208e+00  5.51302483e+00  5.57633543e+00  5.65200189e+00
  5.71295499e+00  5.73881809e+00  5.82229684e+00  5.83510760e+00
  5.94627220e+00  5.95234129e+00  6.02521516e+00  6.05248673e+00
  6.09562930e+00  6.11311602e+00  6.14718453e+00  6.16353792e+00
  6.25117621e+00  6.34484214e+00  6.41508001e+00  6.41682368e+00
  6.41954801e+00  6.53575056e+00  6.59792397e+00  6.63492175e+00
  6.68550912e+00  6.76102768e+00  6.82675944e+00  6.86884304e+00
  6.87156013e+00  6.95139145e+00  7.00486913e+00  7.10886760e+00
  7.14602266e+00  7.21994852e+00  7.25524910e+00  7.25791207e+00
  7.29350846e+00  7.36522025e+00  7.41764709e+00  7.44607712e+00
  7.60368477e+00  7.68834734e+00  7.80601947e+00  7.89708642e+00
  8.01320451e+00  8.37591272e+00  1.10887182e+01  1.30369075e+01
  1.32847976e+01  1.40295589e+01  1.58823992e+01  1.73780090e+01]
E1 = -1571.9198804968978  E_coul = 644.7894345201546
cycle= 1 E= -429.767298280973  delta_E= 3.51  |g|= 0.931  |ddm|= 3.07
    CPU time for cycle= 1    118.73 sec, wall time      3.79 sec
diis-norm(errvec)=3.08182
diis-c [-9.49761356  1.        ]
  HOMO = -0.10465557447841  LUMO = -0.0036318335870973
  mo_energy =
[-2.06218457e+01 -2.06199888e+01 -2.03043642e+01 -1.17034479e+01
 -1.14590264e+01 -1.14579655e+01 -2.47251003e+00 -2.47233227e+00
 -2.42248631e+00 -2.41953849e+00 -2.40795354e+00 -2.40609603e+00
 -2.39354701e+00 -2.39347894e+00 -2.39291201e+00 -2.39009838e+00
 -2.36363020e+00 -2.31804419e+00 -1.71011303e+00 -1.52503164e+00
 -1.46379325e+00 -1.21520726e+00 -1.05058100e+00 -9.47720579e-01
 -8.89781467e-01 -8.30809306e-01 -7.98957675e-01 -7.29324191e-01
 -7.22173800e-01 -6.55181304e-01 -6.35822838e-01 -6.33944174e-01
 -5.48041063e-01 -4.97913281e-01 -4.62263418e-01 -2.32972312e-01
 -1.99747749e-01 -1.78633249e-01 -1.35264849e-01 -1.09310957e-01
 -1.04655574e-01 -3.63183359e-03  1.42568052e-02  1.64497732e-02
  2.07576088e-02  2.11033998e-02  2.63094657e-02  3.06976047e-02
  3.66614388e-02  3.95652370e-02  4.21278691e-02  4.60449224e-02
  5.01138429e-02  5.15347065e-02  5.67058145e-02  5.91559618e-02
  6.03003334e-02  6.37276721e-02  6.48687910e-02  6.84948506e-02
  7.25442976e-02  7.29281519e-02  7.48684739e-02  7.74399338e-02
  7.91996045e-02  8.12071402e-02  8.29521224e-02  8.62749204e-02
  8.87982703e-02  9.15191659e-02  9.29386560e-02  9.58561868e-02
  9.92431779e-02  1.01271928e-01  1.02882256e-01  1.04166103e-01
  1.05443932e-01  1.05729011e-01  1.07115170e-01  1.15501350e-01
  1.16981380e-01  1.18765993e-01  1.21627681e-01  1.23160345e-01
  1.25358803e-01  1.29217383e-01  1.31721444e-01  1.34576918e-01
  1.36775721e-01  1.40648878e-01  1.43570218e-01  1.47654049e-01
  1.49806530e-01  1.55589024e-01  1.58764415e-01  1.65185699e-01
  1.67475660e-01  1.69985503e-01  1.74224229e-01  1.74681352e-01
  1.81904668e-01  1.84315427e-01  1.85941503e-01  1.90935807e-01
  1.95486471e-01  1.99405271e-01  2.01732855e-01  2.02726061e-01
  2.07517622e-01  2.10508152e-01  2.13907102e-01  2.15172777e-01
  2.19736008e-01  2.20093764e-01  2.23781289e-01  2.28992399e-01
  2.29460915e-01  2.37992856e-01  2.38524684e-01  2.39871805e-01
  2.42001372e-01  2.46170973e-01  2.53331760e-01  2.54772732e-01
  2.58678942e-01  2.62693983e-01  2.66675940e-01  2.68010146e-01
  2.75041407e-01  2.77205942e-01  2.78208402e-01  2.79444047e-01
  2.87582695e-01  2.92814528e-01  2.96376318e-01  2.99498409e-01
  3.04933951e-01  3.05438628e-01  3.09367850e-01  3.14218938e-01
  3.19379791e-01  3.21203340e-01  3.22160828e-01  3.22807142e-01
  3.29261865e-01  3.36953364e-01  3.38526056e-01  3.41696107e-01
  3.42978524e-01  3.45238297e-01  3.49717320e-01  3.55446196e-01
  3.56829764e-01  3.58197237e-01  3.64566700e-01  3.77799090e-01
  3.80663298e-01  3.82911629e-01  3.92498998e-01  3.94476991e-01
  4.01364321e-01  4.06247756e-01  4.07193036e-01  4.09919726e-01
  4.11340816e-01  4.17048160e-01  4.19704369e-01  4.22517851e-01
  4.26116989e-01  4.27707843e-01  4.29149424e-01  4.31228122e-01
  4.33574375e-01  4.34149703e-01  4.37287118e-01  4.39325405e-01
  4.42927620e-01  4.47417685e-01  4.52475956e-01  4.53930555e-01
  4.61000640e-01  4.61975429e-01  4.65248851e-01  4.67673124e-01
  4.75386175e-01  4.77141156e-01  4.79947528e-01  4.85082730e-01
  4.87024485e-01  4.90759630e-01  4.92853077e-01  4.97477372e-01
  4.98439488e-01  5.02029670e-01  5.03623941e-01  5.07518047e-01
  5.11336892e-01  5.13523338e-01  5.16620842e-01  5.20907134e-01
  5.26150143e-01  5.27269630e-01  5.36619761e-01  5.40586698e-01
  5.44686952e-01  5.45202667e-01  5.47978758e-01  5.52704108e-01
  5.55535266e-01  5.62050384e-01  5.64829798e-01  5.67677900e-01
  5.69919211e-01  5.73651558e-01  5.75985799e-01  5.78158864e-01
  5.83423605e-01  5.84596138e-01  5.86461436e-01  5.89537534e-01
  5.91591842e-01  5.95766560e-01  5.99147536e-01  6.00371598e-01
  6.05856066e-01  6.10990395e-01  6.18127975e-01  6.23841721e-01
  6.26240502e-01  6.36679985e-01  6.40739522e-01  6.48000812e-01
  6.49829743e-01  6.52830890e-01  6.55550098e-01  6.56998291e-01
  6.64041646e-01  6.70883821e-01  6.72434504e-01  6.78496016e-01
  6.80814075e-01  6.83427487e-01  6.88659379e-01  7.05435879e-01
  7.09001032e-01  7.19915181e-01  7.26289900e-01  7.29913369e-01
  7.36404329e-01  7.39958374e-01  7.44401984e-01  7.48564665e-01
  7.53155914e-01  7.55950846e-01  7.56158308e-01  7.60885868e-01
  7.62823065e-01  7.64804680e-01  7.66967140e-01  7.71113952e-01
  7.73714557e-01  7.77664646e-01  7.84925250e-01  7.86887617e-01
  7.93814594e-01  7.95483551e-01  7.97248742e-01  7.98261283e-01
  8.01515547e-01  8.04764877e-01  8.10703541e-01  8.13457314e-01
  8.14802081e-01  8.16389402e-01  8.20423802e-01  8.20961877e-01
  8.23009146e-01  8.24948387e-01  8.30338894e-01  8.34938477e-01
  8.40722052e-01  8.42905780e-01  8.51311256e-01  8.53984847e-01
  8.57193793e-01  8.61324044e-01  8.62743159e-01  8.65412252e-01
  8.70930073e-01  8.74207730e-01  8.80831681e-01  8.83529580e-01
  8.89024803e-01  8.93204221e-01  8.95575877e-01  8.98526637e-01
  8.99064297e-01  9.05815390e-01  9.07799440e-01  9.11362212e-01
  9.14861663e-01  9.15587627e-01  9.21175072e-01  9.23543519e-01
  9.31039759e-01  9.35201694e-01  9.41549141e-01  9.43101813e-01
  9.45333375e-01  9.46923388e-01  9.50663527e-01  9.53212264e-01
  9.58539365e-01  9.61053172e-01  9.64983936e-01  9.69371934e-01
  9.73127886e-01  9.76048497e-01  9.80841854e-01  9.84336713e-01
  9.91384096e-01  9.97810250e-01  1.00002487e+00  1.00073191e+00
  1.00513164e+00  1.00760247e+00  1.01082481e+00  1.01843793e+00
  1.02035323e+00  1.02153171e+00  1.02434710e+00  1.03018753e+00
  1.03283703e+00  1.03592686e+00  1.03711720e+00  1.04185462e+00
  1.04722144e+00  1.05254597e+00  1.05536441e+00  1.05715893e+00
  1.06028480e+00  1.06276283e+00  1.07409719e+00  1.07547860e+00
  1.07973847e+00  1.08190691e+00  1.08432748e+00  1.08632498e+00
  1.09556876e+00  1.09681612e+00  1.10027194e+00  1.10361774e+00
  1.11074495e+00  1.11222491e+00  1.11983234e+00  1.12664522e+00
  1.12949200e+00  1.13395764e+00  1.14036947e+00  1.14495311e+00
  1.15075139e+00  1.15646487e+00  1.16054499e+00  1.17154995e+00
  1.17410652e+00  1.17988957e+00  1.18418131e+00  1.19210993e+00
  1.19629487e+00  1.20072516e+00  1.20386477e+00  1.20734757e+00
  1.20947591e+00  1.21117037e+00  1.21738227e+00  1.22278128e+00
  1.22799480e+00  1.22974967e+00  1.23348928e+00  1.24125007e+00
  1.24206772e+00  1.24675316e+00  1.25409389e+00  1.25758563e+00
  1.26009233e+00  1.26571866e+00  1.27671712e+00  1.28025469e+00
  1.28282534e+00  1.28887852e+00  1.29204594e+00  1.30029982e+00
  1.30104079e+00  1.30428055e+00  1.31559296e+00  1.31813710e+00
  1.31991880e+00  1.33414876e+00  1.33829337e+00  1.34060093e+00
  1.34821625e+00  1.35048130e+00  1.35690339e+00  1.37112892e+00
  1.37180165e+00  1.38065146e+00  1.38148937e+00  1.38571140e+00
  1.39026754e+00  1.40254180e+00  1.40768920e+00  1.40950078e+00
  1.42220927e+00  1.43214132e+00  1.43542185e+00  1.46649842e+00
  1.47037468e+00  1.47228513e+00  1.47444086e+00  1.49742158e+00
  1.50954161e+00  1.52166038e+00  1.53677268e+00  1.53905826e+00
  1.54076087e+00  1.55853522e+00  1.60305508e+00  1.63644823e+00
  1.64056918e+00  1.65163441e+00  1.71895684e+00  1.76139876e+00
  1.83278949e+00  1.86224865e+00  1.86589932e+00  1.95610223e+00
  1.96025640e+00  1.98397525e+00  2.04087538e+00  2.12819021e+00
  2.17330624e+00  2.22597293e+00  2.24600212e+00  2.30383198e+00
  2.36340434e+00  2.38602491e+00  2.42701064e+00  2.45404662e+00
  2.48291040e+00  2.51193811e+00  2.56326407e+00  2.60276239e+00
  2.65201572e+00  2.65622818e+00  2.73119779e+00  2.74055665e+00
  2.76547834e+00  2.80189607e+00  2.82495587e+00  2.83564752e+00
  2.93191815e+00  2.95287520e+00  2.99099735e+00  2.99454746e+00
  3.03778168e+00  3.05698618e+00  3.08820914e+00  3.12067541e+00
  3.14069084e+00  3.15647863e+00  3.19349157e+00  3.22850832e+00
  3.23628713e+00  3.24876254e+00  3.26045679e+00  3.27186462e+00
  3.28177025e+00  3.30040506e+00  3.30737252e+00  3.36281151e+00
  3.39388325e+00  3.39910973e+00  3.41235550e+00  3.42422933e+00
  3.43235280e+00  3.46709394e+00  3.47796676e+00  3.49007292e+00
  3.51353615e+00  3.55634436e+00  3.57930469e+00  3.61512999e+00
  3.63702222e+00  3.64497858e+00  3.66488262e+00  3.67646463e+00
  3.71023133e+00  3.71325740e+00  3.73220096e+00  3.75013244e+00
  3.80270651e+00  3.81358515e+00  3.84785277e+00  3.86777950e+00
  3.90683805e+00  3.92003217e+00  3.97121797e+00  4.00228827e+00
  4.01214431e+00  4.04046117e+00  4.05299590e+00  4.10994706e+00
  4.20708325e+00  4.21416533e+00  4.24761023e+00  4.25377324e+00
  4.26159996e+00  4.34375392e+00  4.35250602e+00  4.37359106e+00
  4.39924500e+00  4.45634609e+00  4.47107798e+00  4.47820613e+00
  4.60112325e+00  4.62378132e+00  4.64301617e+00  4.76595858e+00
  4.79914357e+00  4.80830894e+00  4.89804443e+00  4.90271156e+00
  4.96363041e+00  5.00655758e+00  5.03932700e+00  5.10273450e+00
  5.16932641e+00  5.28379239e+00  5.28599745e+00  5.34468404e+00
  5.39140572e+00  5.46071536e+00  5.47008280e+00  5.47809420e+00
  5.59341031e+00  5.65508528e+00  5.66154825e+00  5.69773796e+00
  5.72160460e+00  5.73583278e+00  5.80394245e+00  5.88175137e+00
  5.94430345e+00  5.97508303e+00  6.03708419e+00  6.05898124e+00
  6.09271962e+00  6.12968392e+00  6.17370140e+00  6.21062420e+00
  6.23701661e+00  6.35494720e+00  6.40357254e+00  6.42754994e+00
  6.45004031e+00  6.57323398e+00  6.61039186e+00  6.72651442e+00
  6.80684385e+00  6.83738680e+00  6.90115566e+00  7.07466700e+00
  7.08532672e+00  7.11087789e+00  7.16024751e+00  7.20106707e+00
  7.23714016e+00  7.28587306e+00  7.33399368e+00  7.35677275e+00
  7.43238043e+00  7.52744193e+00  7.57326374e+00  7.59791601e+00
  7.75757028e+00  7.76343026e+00  7.99832055e+00  8.04619754e+00
  8.08767202e+00  8.47042405e+00  1.11182926e+01  1.30666570e+01
  1.33333267e+01  1.40179311e+01  1.57858589e+01  1.74072518e+01]
E1 = -1571.6884306796774  E_coul = 644.4205158140851
cycle= 2 E= -429.904767169822  delta_E= -0.137  |g|= 0.555  |ddm|= 1.14
    CPU time for cycle= 2    119.45 sec, wall time      3.79 sec
diis-norm(errvec)=1.8434
diis-c [-0.87899544  0.3509184   0.6490816 ]
  HOMO = -0.129100567107443  LUMO = -0.0115270797887499
  mo_energy =
[-2.06507832e+01 -2.06501541e+01 -2.06454988e+01 -1.14570322e+01
 -1.13151145e+01 -1.13140801e+01 -2.46297316e+00 -2.46264121e+00
 -2.43675554e+00 -2.43469015e+00 -2.43381577e+00 -2.43146617e+00
 -2.43142620e+00 -2.43089713e+00 -2.43042094e+00 -2.43040156e+00
 -2.42700299e+00 -2.42051608e+00 -1.64598527e+00 -1.50887534e+00
 -1.47518283e+00 -1.14036156e+00 -9.94174988e-01 -9.04831066e-01
 -8.39117237e-01 -8.21331627e-01 -7.59810188e-01 -7.35429090e-01
 -6.98198936e-01 -6.83786496e-01 -6.13668248e-01 -5.88308958e-01
 -5.61762296e-01 -5.43870452e-01 -5.09636556e-01 -2.66555948e-01
 -2.18245410e-01 -2.07679203e-01 -1.54085848e-01 -1.33520768e-01
 -1.29100567e-01 -1.15270798e-02  5.29740581e-03  8.63511259e-03
  1.47393535e-02  1.53008010e-02  2.04619142e-02  2.36694452e-02
  2.82202476e-02  3.20508952e-02  3.75958330e-02  4.20849346e-02
  4.51894937e-02  4.56689738e-02  5.33057321e-02  5.59995655e-02
  5.74636205e-02  5.77011103e-02  6.02624395e-02  6.63482483e-02
  6.76983862e-02  6.97113743e-02  7.05272998e-02  7.17549134e-02
  7.36392482e-02  7.78806292e-02  7.93211065e-02  8.09329980e-02
  8.16494185e-02  8.61565762e-02  8.83819343e-02  9.03097428e-02
  9.35119344e-02  9.51732133e-02  9.99439438e-02  1.00571172e-01
  1.00784914e-01  1.02198639e-01  1.03186296e-01  1.08925873e-01
  1.10148475e-01  1.11341979e-01  1.14630865e-01  1.18653728e-01
  1.19258556e-01  1.23366786e-01  1.26130116e-01  1.26853083e-01
  1.32213548e-01  1.35232305e-01  1.37577209e-01  1.46939434e-01
  1.49528063e-01  1.52923424e-01  1.53584123e-01  1.56451057e-01
  1.62921077e-01  1.67311184e-01  1.68715705e-01  1.72843660e-01
  1.75702080e-01  1.82993351e-01  1.87702089e-01  1.90895536e-01
  1.91649808e-01  1.94218373e-01  1.94855832e-01  2.00950342e-01
  2.02491536e-01  2.03324847e-01  2.07471941e-01  2.10456491e-01
  2.11905576e-01  2.14355588e-01  2.18951291e-01  2.19718456e-01
  2.22534540e-01  2.22596961e-01  2.28576515e-01  2.30878078e-01
  2.34774566e-01  2.37279705e-01  2.42126999e-01  2.44579121e-01
  2.49997656e-01  2.53560372e-01  2.58570357e-01  2.59570332e-01
  2.62017193e-01  2.64780582e-01  2.65211181e-01  2.70422523e-01
  2.71399902e-01  2.87055879e-01  2.90785237e-01  2.92011680e-01
  2.96589294e-01  2.99740414e-01  3.03054661e-01  3.05340921e-01
  3.06836328e-01  3.09593559e-01  3.15611114e-01  3.21229681e-01
  3.22678214e-01  3.27490196e-01  3.28908186e-01  3.32688105e-01
  3.34270297e-01  3.39347152e-01  3.40077425e-01  3.41140450e-01
  3.49202030e-01  3.50342619e-01  3.55905252e-01  3.63846561e-01
  3.65531948e-01  3.74895445e-01  3.76292714e-01  3.77768443e-01
  3.86261751e-01  3.90145535e-01  3.97027668e-01  3.99855268e-01
  4.02438785e-01  4.10705674e-01  4.12399707e-01  4.14255372e-01
  4.14776903e-01  4.17492323e-01  4.18561726e-01  4.19431545e-01
  4.21408989e-01  4.24395444e-01  4.26267468e-01  4.26894522e-01
  4.29577819e-01  4.35030414e-01  4.42164660e-01  4.45367019e-01
  4.46707294e-01  4.48202547e-01  4.51822052e-01  4.55616323e-01
  4.59227231e-01  4.62586549e-01  4.68545958e-01  4.74748507e-01
  4.77277398e-01  4.79662565e-01  4.81894004e-01  4.84899815e-01
  4.86946094e-01  4.87956188e-01  4.93667874e-01  5.00485371e-01
  5.02658814e-01  5.05210363e-01  5.12079495e-01  5.16016272e-01
  5.21628717e-01  5.25768211e-01  5.26766400e-01  5.31986815e-01
  5.33873315e-01  5.36500121e-01  5.37360156e-01  5.42604542e-01
  5.44903234e-01  5.48311991e-01  5.52899617e-01  5.55523195e-01
  5.57006679e-01  5.59612987e-01  5.61976553e-01  5.63862519e-01
  5.65972936e-01  5.69294073e-01  5.72534905e-01  5.75420250e-01
  5.77245673e-01  5.84218310e-01  5.88718236e-01  5.90102101e-01
  5.99813308e-01  6.04983742e-01  6.09197779e-01  6.17881042e-01
  6.23047287e-01  6.24740808e-01  6.32402688e-01  6.33561395e-01
  6.39897262e-01  6.43645759e-01  6.44745531e-01  6.55677058e-01
  6.57215898e-01  6.61504336e-01  6.63831016e-01  6.67731000e-01
  6.82584492e-01  6.85609138e-01  6.92003915e-01  6.98462284e-01
  7.03021371e-01  7.11875505e-01  7.16019099e-01  7.17274658e-01
  7.25390477e-01  7.28380357e-01  7.30703921e-01  7.37100972e-01
  7.40499451e-01  7.42405030e-01  7.43784295e-01  7.44804799e-01
  7.47864455e-01  7.52050151e-01  7.54246426e-01  7.55487720e-01
  7.57463685e-01  7.62139408e-01  7.70535069e-01  7.72648871e-01
  7.73663088e-01  7.74731270e-01  7.81434989e-01  7.83751499e-01
  7.85843871e-01  7.87969583e-01  7.93138044e-01  7.96314157e-01
  7.98568090e-01  8.00170322e-01  8.02377992e-01  8.07636552e-01
  8.09522257e-01  8.10634928e-01  8.16493225e-01  8.16921298e-01
  8.23934986e-01  8.34982066e-01  8.35121749e-01  8.40662504e-01
  8.42155768e-01  8.44031756e-01  8.50300623e-01  8.51046351e-01
  8.53832380e-01  8.61736428e-01  8.66793558e-01  8.67729554e-01
  8.70822934e-01  8.73952994e-01  8.76646885e-01  8.79736057e-01
  8.83504673e-01  8.86499028e-01  8.88487255e-01  8.91769980e-01
  8.97443906e-01  9.01489321e-01  9.06789153e-01  9.11872501e-01
  9.17088390e-01  9.19515945e-01  9.23601622e-01  9.25941446e-01
  9.28656321e-01  9.33080927e-01  9.34115516e-01  9.37742974e-01
  9.44480000e-01  9.45628676e-01  9.45679541e-01  9.50263402e-01
  9.51306050e-01  9.55311425e-01  9.60492449e-01  9.68472518e-01
  9.75422259e-01  9.81696519e-01  9.83224008e-01  9.85810370e-01
  9.89207355e-01  9.91788928e-01  9.99739768e-01  1.00170230e+00
  1.00356270e+00  1.00672756e+00  1.01090725e+00  1.01350941e+00
  1.01578785e+00  1.01799108e+00  1.02093145e+00  1.02415073e+00
  1.02605898e+00  1.02722919e+00  1.03688825e+00  1.03870125e+00
  1.04312231e+00  1.04562183e+00  1.04973081e+00  1.05452559e+00
  1.05598223e+00  1.06300718e+00  1.06572207e+00  1.06809557e+00
  1.07475645e+00  1.07644151e+00  1.07873010e+00  1.08600824e+00
  1.08765670e+00  1.09443779e+00  1.10159533e+00  1.10492819e+00
  1.10896055e+00  1.11486892e+00  1.11831617e+00  1.12678035e+00
  1.12981060e+00  1.13878766e+00  1.14514297e+00  1.15220149e+00
  1.15568201e+00  1.16663913e+00  1.17098625e+00  1.17496554e+00
  1.17555216e+00  1.17929377e+00  1.18236920e+00  1.18815488e+00
  1.19096728e+00  1.19868118e+00  1.19979196e+00  1.20438702e+00
  1.21056900e+00  1.21490855e+00  1.21803119e+00  1.22639373e+00
  1.22722687e+00  1.23046246e+00  1.23577295e+00  1.23665026e+00
  1.24381961e+00  1.25165277e+00  1.25372820e+00  1.26135940e+00
  1.26368140e+00  1.26968340e+00  1.27304181e+00  1.28459645e+00
  1.28761109e+00  1.29154350e+00  1.29406790e+00  1.29837854e+00
  1.30401279e+00  1.30562255e+00  1.31216938e+00  1.31640434e+00
  1.31772164e+00  1.32487290e+00  1.33009965e+00  1.33600792e+00
  1.34266372e+00  1.35152419e+00  1.35631284e+00  1.36611658e+00
  1.37104547e+00  1.37470440e+00  1.39274337e+00  1.40483791e+00
  1.40911285e+00  1.41668102e+00  1.42438172e+00  1.42749416e+00
  1.43243416e+00  1.43303769e+00  1.44917911e+00  1.47507802e+00
  1.48986250e+00  1.49166350e+00  1.52002071e+00  1.52171721e+00
  1.53761740e+00  1.57315620e+00  1.60147222e+00  1.63606692e+00
  1.66164746e+00  1.66878240e+00  1.73607864e+00  1.80376962e+00
  1.83184809e+00  1.87105271e+00  1.88427143e+00  1.91879190e+00
  1.97311327e+00  2.00146299e+00  2.07286904e+00  2.10209893e+00
  2.15811511e+00  2.23893619e+00  2.28464816e+00  2.33482645e+00
  2.38951157e+00  2.42642964e+00  2.45973997e+00  2.47206051e+00
  2.50559930e+00  2.54221771e+00  2.61366145e+00  2.66596245e+00
  2.67843468e+00  2.71208796e+00  2.75010205e+00  2.79044139e+00
  2.83403736e+00  2.86521092e+00  2.86790132e+00  2.87443179e+00
  2.97477350e+00  2.98961176e+00  3.00373340e+00  3.06182490e+00
  3.09170831e+00  3.12230460e+00  3.13575302e+00  3.18093305e+00
  3.19389170e+00  3.19948799e+00  3.22691635e+00  3.25328462e+00
  3.29387997e+00  3.29703021e+00  3.30248801e+00  3.31631484e+00
  3.33090759e+00  3.34645495e+00  3.38307694e+00  3.39963104e+00
  3.40579353e+00  3.41360939e+00  3.43482677e+00  3.45292497e+00
  3.46856040e+00  3.47305273e+00  3.52706689e+00  3.53066119e+00
  3.55528384e+00  3.56157267e+00  3.60587665e+00  3.61750802e+00
  3.64533574e+00  3.66426587e+00  3.67306926e+00  3.69399198e+00
  3.69598846e+00  3.75766496e+00  3.77187319e+00  3.80241536e+00
  3.85565400e+00  3.85623917e+00  3.89295439e+00  3.91900397e+00
  3.95692678e+00  3.96517909e+00  4.02035618e+00  4.04155972e+00
  4.05656272e+00  4.07520044e+00  4.09281860e+00  4.14711083e+00
  4.15368550e+00  4.24664648e+00  4.28130004e+00  4.28858575e+00
  4.29321325e+00  4.38548088e+00  4.39115226e+00  4.42701234e+00
  4.43651924e+00  4.50126938e+00  4.51585949e+00  4.51945680e+00
  4.65281637e+00  4.67008336e+00  4.67883049e+00  4.69791210e+00
  4.76126782e+00  4.81774158e+00  4.83340685e+00  4.94727179e+00
  5.01013601e+00  5.05310248e+00  5.08185048e+00  5.14262603e+00
  5.16393944e+00  5.32464646e+00  5.33456147e+00  5.39453684e+00
  5.43856976e+00  5.47910842e+00  5.48886246e+00  5.52804160e+00
  5.56472544e+00  5.59203289e+00  5.60549334e+00  5.68260975e+00
  5.75132165e+00  5.75421041e+00  5.84901319e+00  5.87491935e+00
  5.98557503e+00  5.99373753e+00  6.08831714e+00  6.10517951e+00
  6.11971575e+00  6.14551669e+00  6.20198081e+00  6.20912851e+00
  6.28480115e+00  6.39260117e+00  6.44965810e+00  6.46516161e+00
  6.47141554e+00  6.59163059e+00  6.64689270e+00  6.71396015e+00
  6.79093514e+00  6.84367307e+00  6.90025423e+00  6.95953766e+00
  6.98103469e+00  7.03453997e+00  7.09051456e+00  7.19985758e+00
  7.22865894e+00  7.30280774e+00  7.34309127e+00  7.35098712e+00
  7.41487770e+00  7.45273912e+00  7.51470983e+00  7.52948324e+00
  7.72196368e+00  7.76892213e+00  7.90822350e+00  7.99452538e+00
  8.09158969e+00  8.45011671e+00  1.11333262e+01  1.30869467e+01
  1.33550380e+01  1.40613295e+01  1.58943273e+01  1.74069411e+01]
E1 = -1572.6135472193055  E_coul = 645.2884533414584
cycle= 3 E= -429.961946182077  delta_E= -0.0572  |g|= 0.0894  |ddm|= 0.337
    CPU time for cycle= 3    119.10 sec, wall time      3.75 sec
diis-norm(errvec)=0.334616
diis-c [-0.06782228 -0.07766922 -0.00844274  1.08611196]
  HOMO = -0.124038262131516  LUMO = -0.00480472322929963
  mo_energy =
[-2.06607152e+01 -2.06592864e+01 -2.05576158e+01 -1.14443965e+01
 -1.13037917e+01 -1.13027417e+01 -2.45682163e+00 -2.45662232e+00
 -2.42984762e+00 -2.42971227e+00 -2.42955478e+00 -2.42809369e+00
 -2.42479467e+00 -2.42464215e+00 -2.41691606e+00 -2.41676869e+00
 -2.41268558e+00 -2.40308660e+00 -1.63987330e+00 -1.48099966e+00
 -1.47537399e+00 -1.13068944e+00 -9.86933988e-01 -9.01007506e-01
 -8.33620457e-01 -8.05020268e-01 -7.50073171e-01 -7.19319286e-01
 -6.83921840e-01 -6.81564796e-01 -6.17349170e-01 -5.85883495e-01
 -5.38428385e-01 -5.26471862e-01 -5.07770617e-01 -2.56591393e-01
 -2.11248884e-01 -2.02081421e-01 -1.49683224e-01 -1.30166792e-01
 -1.24038262e-01 -4.80472323e-03  1.01953566e-02  1.20347798e-02
  1.79601396e-02  1.84499992e-02  2.23068927e-02  2.63894075e-02
  3.02483247e-02  3.33487597e-02  3.92166271e-02  4.36044273e-02
  4.67644833e-02  4.83422997e-02  5.48794204e-02  5.73897286e-02
  5.88464915e-02  6.02035735e-02  6.15106321e-02  6.86329655e-02
  6.94579244e-02  7.15518764e-02  7.23611874e-02  7.40936003e-02
  7.52625186e-02  7.95894652e-02  8.09026222e-02  8.31050785e-02
  8.38825788e-02  8.75440352e-02  9.01410381e-02  9.09521388e-02
  9.45834141e-02  9.63858727e-02  1.01535272e-01  1.02113045e-01
  1.03003162e-01  1.04059507e-01  1.04554165e-01  1.11335840e-01
  1.12069157e-01  1.13106685e-01  1.15218146e-01  1.20858250e-01
  1.22111873e-01  1.25205748e-01  1.28917075e-01  1.30118508e-01
  1.34517992e-01  1.38028276e-01  1.39848426e-01  1.50919173e-01
  1.53392884e-01  1.55858573e-01  1.57285296e-01  1.60028585e-01
  1.65808566e-01  1.69273943e-01  1.72267848e-01  1.76717273e-01
  1.78091324e-01  1.85923324e-01  1.91092630e-01  1.94524879e-01
  1.95332474e-01  1.99394203e-01  2.00155509e-01  2.04522436e-01
  2.05616282e-01  2.07786504e-01  2.12623723e-01  2.15831735e-01
  2.16474499e-01  2.17813076e-01  2.21507336e-01  2.22857123e-01
  2.26439444e-01  2.27431438e-01  2.32562642e-01  2.34636727e-01
  2.37992220e-01  2.41638741e-01  2.46056799e-01  2.48858585e-01
  2.53803181e-01  2.57368127e-01  2.62516425e-01  2.63713840e-01
  2.67247526e-01  2.68503123e-01  2.69747887e-01  2.74691421e-01
  2.74840484e-01  2.91445871e-01  2.95219676e-01  2.96956541e-01
  3.00791832e-01  3.03384894e-01  3.07628033e-01  3.09878902e-01
  3.10779639e-01  3.12848759e-01  3.19701957e-01  3.25790789e-01
  3.26747131e-01  3.31259572e-01  3.32177892e-01  3.36868224e-01
  3.37736371e-01  3.43471871e-01  3.45613526e-01  3.45983751e-01
  3.53841324e-01  3.55322902e-01  3.59577824e-01  3.67877163e-01
  3.70548809e-01  3.79341115e-01  3.80981167e-01  3.83110894e-01
  3.91229354e-01  3.94705929e-01  4.02299421e-01  4.03694452e-01
  4.07588397e-01  4.14208552e-01  4.16996735e-01  4.18240911e-01
  4.19142920e-01  4.20733760e-01  4.22826662e-01  4.24674730e-01
  4.25171057e-01  4.29172866e-01  4.31128726e-01  4.33310825e-01
  4.35243960e-01  4.39097432e-01  4.47655927e-01  4.51606942e-01
  4.51848911e-01  4.52381618e-01  4.57788307e-01  4.59248358e-01
  4.63549526e-01  4.70229887e-01  4.73105549e-01  4.78305393e-01
  4.80614769e-01  4.83181810e-01  4.87133611e-01  4.89392932e-01
  4.91069503e-01  4.92097460e-01  4.97875007e-01  5.04591114e-01
  5.07937716e-01  5.10211662e-01  5.15689668e-01  5.20630481e-01
  5.28149742e-01  5.32142683e-01  5.33104764e-01  5.36887291e-01
  5.38740811e-01  5.41533093e-01  5.43177390e-01  5.49082239e-01
  5.50743744e-01  5.53947684e-01  5.58689172e-01  5.61016450e-01
  5.63701071e-01  5.66580705e-01  5.68846308e-01  5.69817451e-01
  5.71366367e-01  5.75130682e-01  5.77683101e-01  5.79357924e-01
  5.84523559e-01  5.89102639e-01  5.95404119e-01  5.96751499e-01
  6.05950519e-01  6.11638446e-01  6.16867825e-01  6.24935318e-01
  6.29502428e-01  6.31856262e-01  6.38113088e-01  6.40543998e-01
  6.43568263e-01  6.48646062e-01  6.51141501e-01  6.62988227e-01
  6.64088009e-01  6.67337188e-01  6.70555665e-01  6.74193684e-01
  6.89127890e-01  6.93022454e-01  6.99145628e-01  7.05735718e-01
  7.10171043e-01  7.17468163e-01  7.22618967e-01  7.23440962e-01
  7.31791410e-01  7.35851943e-01  7.38714656e-01  7.44427503e-01
  7.47740378e-01  7.48643308e-01  7.50641477e-01  7.50970885e-01
  7.54676053e-01  7.58793222e-01  7.61517741e-01  7.62448078e-01
  7.64353232e-01  7.69564621e-01  7.77080042e-01  7.79662015e-01
  7.80439922e-01  7.81524939e-01  7.87403062e-01  7.90167668e-01
  7.91953771e-01  7.94116962e-01  7.99661904e-01  8.04052827e-01
  8.04421831e-01  8.07044343e-01  8.07922297e-01  8.13656145e-01
  8.14769113e-01  8.15904626e-01  8.21810643e-01  8.23168463e-01
  8.28834712e-01  8.39340755e-01  8.40289419e-01  8.46312655e-01
  8.47708670e-01  8.50576812e-01  8.55534796e-01  8.57390740e-01
  8.59412113e-01  8.66934110e-01  8.72784145e-01  8.73634301e-01
  8.76302834e-01  8.79765851e-01  8.81644752e-01  8.85202965e-01
  8.89316441e-01  8.93250266e-01  8.95630971e-01  8.97376648e-01
  9.03103276e-01  9.07085320e-01  9.11537951e-01  9.18755691e-01
  9.23506822e-01  9.25164797e-01  9.29206992e-01  9.32079851e-01
  9.34066884e-01  9.39296763e-01  9.40391199e-01  9.42947663e-01
  9.50380213e-01  9.50675861e-01  9.51709974e-01  9.56631166e-01
  9.57474753e-01  9.61589585e-01  9.66425382e-01  9.75125285e-01
  9.82895326e-01  9.88329039e-01  9.90147359e-01  9.92583806e-01
  9.96196420e-01  9.98303055e-01  1.00837972e+00  1.00968573e+00
  1.01094383e+00  1.01343721e+00  1.01763177e+00  1.02036073e+00
  1.02332342e+00  1.02462009e+00  1.02729101e+00  1.03087613e+00
  1.03305942e+00  1.03468277e+00  1.04353421e+00  1.04508716e+00
  1.05029496e+00  1.05252974e+00  1.05697352e+00  1.06174082e+00
  1.06288092e+00  1.06976068e+00  1.07287534e+00  1.07539944e+00
  1.08226836e+00  1.08336525e+00  1.08513067e+00  1.09319604e+00
  1.09496524e+00  1.10073411e+00  1.10836927e+00  1.11212048e+00
  1.11665305e+00  1.12125340e+00  1.12542018e+00  1.13352725e+00
  1.13725729e+00  1.14594608e+00  1.15214307e+00  1.15975895e+00
  1.16248604e+00  1.17393485e+00  1.17912341e+00  1.18316550e+00
  1.18431388e+00  1.18685206e+00  1.19024821e+00  1.19650976e+00
  1.19807016e+00  1.20641803e+00  1.20782921e+00  1.21196259e+00
  1.21783229e+00  1.22254858e+00  1.22594401e+00  1.23451198e+00
  1.23589369e+00  1.23903294e+00  1.24375683e+00  1.24541935e+00
  1.25157751e+00  1.26060032e+00  1.26376496e+00  1.27016392e+00
  1.27196258e+00  1.27889212e+00  1.28217160e+00  1.29287492e+00
  1.29663529e+00  1.30042262e+00  1.30320731e+00  1.30665532e+00
  1.31325838e+00  1.31460528e+00  1.32181452e+00  1.32574509e+00
  1.32812987e+00  1.33480988e+00  1.33991252e+00  1.34621073e+00
  1.35208529e+00  1.36030264e+00  1.36563221e+00  1.37663212e+00
  1.38040102e+00  1.38416380e+00  1.40273395e+00  1.41488797e+00
  1.41721188e+00  1.42798346e+00  1.43471497e+00  1.43756504e+00
  1.44084943e+00  1.44446271e+00  1.45782344e+00  1.48625008e+00
  1.49858509e+00  1.50204432e+00  1.52793223e+00  1.53062679e+00
  1.54665758e+00  1.57919811e+00  1.61032268e+00  1.64091340e+00
  1.67236068e+00  1.67499082e+00  1.74366974e+00  1.81302638e+00
  1.84735047e+00  1.87893916e+00  1.89295087e+00  1.93098797e+00
  1.98590538e+00  2.00586992e+00  2.07803859e+00  2.11832621e+00
  2.16593766e+00  2.24923476e+00  2.28670234e+00  2.34108295e+00
  2.39699831e+00  2.43783708e+00  2.46724976e+00  2.47971440e+00
  2.51463795e+00  2.54905141e+00  2.61991805e+00  2.67512862e+00
  2.68925725e+00  2.72112726e+00  2.76330847e+00  2.79985247e+00
  2.84139233e+00  2.87122156e+00  2.87814179e+00  2.88347960e+00
  2.98514079e+00  2.99837369e+00  3.01355678e+00  3.07108271e+00
  3.10162496e+00  3.13079248e+00  3.14373966e+00  3.18986810e+00
  3.20062480e+00  3.21013265e+00  3.23462941e+00  3.25793442e+00
  3.30264414e+00  3.30431566e+00  3.30929026e+00  3.32623844e+00
  3.33967255e+00  3.35560313e+00  3.39039239e+00  3.40486326e+00
  3.41145039e+00  3.42227108e+00  3.44306228e+00  3.46208170e+00
  3.47882094e+00  3.48235241e+00  3.53602473e+00  3.53847202e+00
  3.56287462e+00  3.56939269e+00  3.61452914e+00  3.62609586e+00
  3.65674871e+00  3.67586050e+00  3.68270600e+00  3.70459403e+00
  3.70895034e+00  3.77339365e+00  3.77985899e+00  3.81153211e+00
  3.86510626e+00  3.86683537e+00  3.90354745e+00  3.92987985e+00
  3.96533753e+00  3.97638215e+00  4.03087093e+00  4.05330557e+00
  4.06598780e+00  4.08626869e+00  4.10274207e+00  4.16323914e+00
  4.16562903e+00  4.25721565e+00  4.29298475e+00  4.29579055e+00
  4.30346867e+00  4.39550523e+00  4.40314280e+00  4.43715564e+00
  4.44914217e+00  4.51072959e+00  4.52619513e+00  4.52958871e+00
  4.66327156e+00  4.68742645e+00  4.69170693e+00  4.72949031e+00
  4.78660794e+00  4.83209797e+00  4.84045802e+00  4.95611660e+00
  5.01991111e+00  5.05992331e+00  5.09240721e+00  5.15244270e+00
  5.18066955e+00  5.33360263e+00  5.34211825e+00  5.40689551e+00
  5.44951771e+00  5.49545163e+00  5.49937907e+00  5.53933842e+00
  5.59512401e+00  5.62165161e+00  5.62211817e+00  5.69651261e+00
  5.76111749e+00  5.76434358e+00  5.85803376e+00  5.88771647e+00
  5.99121051e+00  6.00856636e+00  6.09706702e+00  6.12672060e+00
  6.12966830e+00  6.15253591e+00  6.21040505e+00  6.21860699e+00
  6.29414110e+00  6.39811698e+00  6.45727497e+00  6.47148485e+00
  6.47779430e+00  6.60066469e+00  6.65430457e+00  6.73018807e+00
  6.81404443e+00  6.85658378e+00  6.91351035e+00  6.98768872e+00
  7.01824414e+00  7.05770693e+00  7.11469949e+00  7.20841588e+00
  7.23473882e+00  7.30820759e+00  7.34141305e+00  7.35320668e+00
  7.43429773e+00  7.47167659e+00  7.52942644e+00  7.53428552e+00
  7.74179511e+00  7.76828461e+00  7.93157226e+00  8.00640351e+00
  8.09276832e+00  8.47038318e+00  1.11423660e+01  1.31031844e+01
  1.33531654e+01  1.40752073e+01  1.59041476e+01  1.74378000e+01]
E1 = -1572.3596893694094  E_coul = 645.0309325986942
cycle= 4 E= -429.965609074945  delta_E= -0.00366  |g|= 0.0392  |ddm|= 0.182
    CPU time for cycle= 4    119.23 sec, wall time      3.75 sec
diis-norm(errvec)=0.13739
diis-c [-0.01121457 -0.04033091 -0.04288298  0.26939723  0.81381666]
  HOMO = -0.124906483946098  LUMO = -0.00445656908745804
  mo_energy =
[-2.06453441e+01 -2.06451827e+01 -2.05886510e+01 -1.14559732e+01
 -1.13121476e+01 -1.13110977e+01 -2.45512600e+00 -2.45511979e+00
 -2.43026996e+00 -2.42996210e+00 -2.42955155e+00 -2.42881537e+00
 -2.42698064e+00 -2.42671787e+00 -2.42068848e+00 -2.42025313e+00
 -2.41650138e+00 -2.40783781e+00 -1.64078511e+00 -1.49225643e+00
 -1.47276214e+00 -1.13315589e+00 -9.87495400e-01 -9.00023443e-01
 -8.34394289e-01 -8.09905891e-01 -7.52271150e-01 -7.26502388e-01
 -6.88670431e-01 -6.81101152e-01 -6.13772913e-01 -5.87668399e-01
 -5.47746175e-01 -5.32147811e-01 -5.07422144e-01 -2.58023784e-01
 -2.11585531e-01 -2.03292073e-01 -1.51135983e-01 -1.32546594e-01
 -1.24906484e-01 -4.45656909e-03  9.75086974e-03  1.19134825e-02
  1.78511346e-02  1.85977827e-02  2.23160872e-02  2.60292799e-02
  2.95452557e-02  3.30695072e-02  3.91258976e-02  4.34445264e-02
  4.63315878e-02  4.82503650e-02  5.47986589e-02  5.71496335e-02
  5.87721004e-02  5.98034516e-02  6.14539621e-02  6.84035490e-02
  6.93087885e-02  7.15386431e-02  7.22126576e-02  7.40535079e-02
  7.51030267e-02  7.93431803e-02  8.09906681e-02  8.27987685e-02
  8.35065217e-02  8.73049617e-02  9.00259878e-02  9.08032674e-02
  9.41326665e-02  9.62454750e-02  1.01403057e-01  1.01873551e-01
  1.02768133e-01  1.03923415e-01  1.04250627e-01  1.10813310e-01
  1.11412812e-01  1.12855014e-01  1.15094526e-01  1.20593584e-01
  1.21633206e-01  1.24872710e-01  1.28282584e-01  1.29583971e-01
  1.34092594e-01  1.37801321e-01  1.39615612e-01  1.50594148e-01
  1.52708469e-01  1.56078655e-01  1.57151826e-01  1.59682288e-01
  1.65570459e-01  1.69348974e-01  1.71935224e-01  1.76142465e-01
  1.77855553e-01  1.85797597e-01  1.90782764e-01  1.94398767e-01
  1.95037765e-01  1.98779756e-01  1.99404973e-01  2.04231063e-01
  2.05418879e-01  2.06881016e-01  2.11337794e-01  2.15079028e-01
  2.16003728e-01  2.17682176e-01  2.21320962e-01  2.22221427e-01
  2.26078927e-01  2.26379995e-01  2.32020064e-01  2.33862520e-01
  2.37697413e-01  2.40797395e-01  2.45343715e-01  2.48406912e-01
  2.53247275e-01  2.56954970e-01  2.62116578e-01  2.63288426e-01
  2.66329452e-01  2.67958052e-01  2.68808602e-01  2.73924310e-01
  2.74277516e-01  2.90857538e-01  2.94517044e-01  2.96593321e-01
  3.00261348e-01  3.02765971e-01  3.06847161e-01  3.09451889e-01
  3.10076959e-01  3.12556110e-01  3.19136801e-01  3.25160602e-01
  3.26262878e-01  3.30555511e-01  3.31487981e-01  3.36105439e-01
  3.37161842e-01  3.42682987e-01  3.44864677e-01  3.45434658e-01
  3.53191906e-01  3.55003367e-01  3.59137508e-01  3.67291164e-01
  3.70020175e-01  3.79128575e-01  3.80191892e-01  3.82181040e-01
  3.90174444e-01  3.94070521e-01  4.01520487e-01  4.03034819e-01
  4.06698390e-01  4.13727431e-01  4.16345435e-01  4.17640271e-01
  4.18191466e-01  4.20237424e-01  4.22191146e-01  4.23797968e-01
  4.24557238e-01  4.28622880e-01  4.30290911e-01  4.32660625e-01
  4.33586397e-01  4.38518239e-01  4.46737059e-01  4.50756581e-01
  4.51114113e-01  4.51987900e-01  4.56676164e-01  4.58920712e-01
  4.62799038e-01  4.68459101e-01  4.72368258e-01  4.77751093e-01
  4.80116353e-01  4.82448005e-01  4.86429113e-01  4.88640853e-01
  4.90320395e-01  4.91475857e-01  4.97103279e-01  5.04121392e-01
  5.07178282e-01  5.09331508e-01  5.15482735e-01  5.20094440e-01
  5.26932516e-01  5.30966104e-01  5.32120185e-01  5.36325247e-01
  5.37972008e-01  5.40466188e-01  5.42173134e-01  5.47992553e-01
  5.49592761e-01  5.53028116e-01  5.57618633e-01  5.60087796e-01
  5.62447389e-01  5.65226792e-01  5.67384941e-01  5.68485355e-01
  5.70338256e-01  5.74060676e-01  5.77089895e-01  5.78983233e-01
  5.82882284e-01  5.88545927e-01  5.94332434e-01  5.95912365e-01
  6.05062613e-01  6.10300360e-01  6.15529582e-01  6.23573988e-01
  6.28429126e-01  6.30573517e-01  6.37148823e-01  6.39130722e-01
  6.43047115e-01  6.47859305e-01  6.50005751e-01  6.62061080e-01
  6.62624448e-01  6.66414691e-01  6.69619950e-01  6.73306575e-01
  6.88176758e-01  6.91706123e-01  6.98034297e-01  7.04581776e-01
  7.09246789e-01  7.16899380e-01  7.22125775e-01  7.23103155e-01
  7.30722543e-01  7.34730029e-01  7.37659249e-01  7.43409912e-01
  7.46678255e-01  7.48294871e-01  7.49836727e-01  7.50378070e-01
  7.53828762e-01  7.57873622e-01  7.60437557e-01  7.61203549e-01
  7.63321183e-01  7.68393661e-01  7.76200319e-01  7.78707856e-01
  7.79385711e-01  7.80292692e-01  7.86956631e-01  7.89649887e-01
  7.91486996e-01  7.93500834e-01  7.98739040e-01  8.02664415e-01
  8.03970545e-01  8.05958486e-01  8.07060755e-01  8.13159940e-01
  8.14392819e-01  8.15568552e-01  8.21524707e-01  8.22376300e-01
  8.28236513e-01  8.39344453e-01  8.39925259e-01  8.45709953e-01
  8.47205762e-01  8.49655527e-01  8.55284535e-01  8.56685998e-01
  8.58632687e-01  8.66568385e-01  8.72022491e-01  8.72686282e-01
  8.75655142e-01  8.78681732e-01  8.80994725e-01  8.84332864e-01
  8.88652606e-01  8.92107463e-01  8.94401835e-01  8.96709189e-01
  9.02301983e-01  9.06286230e-01  9.11026247e-01  9.17826649e-01
  9.22330736e-01  9.24079915e-01  9.28164696e-01  9.31158045e-01
  9.33533258e-01  9.38168429e-01  9.39146988e-01  9.42133707e-01
  9.49595793e-01  9.49982573e-01  9.50663030e-01  9.55590487e-01
  9.56229877e-01  9.60691532e-01  9.65411770e-01  9.74009220e-01
  9.81583991e-01  9.87414863e-01  9.88780902e-01  9.91562634e-01
  9.95136359e-01  9.97373276e-01  1.00672982e+00  1.00820259e+00
  1.00981275e+00  1.01241463e+00  1.01647382e+00  1.01944018e+00
  1.02226107e+00  1.02367982e+00  1.02623067e+00  1.02964756e+00
  1.03210303e+00  1.03330890e+00  1.04241674e+00  1.04395461e+00
  1.04896903e+00  1.05131872e+00  1.05544398e+00  1.06047456e+00
  1.06168206e+00  1.06865707e+00  1.07169255e+00  1.07404125e+00
  1.08098132e+00  1.08200525e+00  1.08383552e+00  1.09196722e+00
  1.09361547e+00  1.09978583e+00  1.10732748e+00  1.11073887e+00
  1.11538321e+00  1.12029120e+00  1.12414910e+00  1.13256119e+00
  1.13597165e+00  1.14483829e+00  1.15102266e+00  1.15849196e+00
  1.16141564e+00  1.17248682e+00  1.17769596e+00  1.18169021e+00
  1.18298450e+00  1.18526837e+00  1.18872563e+00  1.19525488e+00
  1.19682829e+00  1.20511087e+00  1.20631627e+00  1.21077984e+00
  1.21639821e+00  1.22127828e+00  1.22469588e+00  1.23329824e+00
  1.23453718e+00  1.23759051e+00  1.24228182e+00  1.24377128e+00
  1.25027119e+00  1.25901476e+00  1.26163968e+00  1.26812549e+00
  1.27019199e+00  1.27689754e+00  1.28035638e+00  1.29129419e+00
  1.29482240e+00  1.29883187e+00  1.30137278e+00  1.30538185e+00
  1.31125934e+00  1.31297170e+00  1.31987779e+00  1.32381635e+00
  1.32602718e+00  1.33285977e+00  1.33778283e+00  1.34389655e+00
  1.34997765e+00  1.35829092e+00  1.36378962e+00  1.37444173e+00
  1.37828418e+00  1.38197996e+00  1.40037754e+00  1.41271738e+00
  1.41569369e+00  1.42471857e+00  1.43234322e+00  1.43548985e+00
  1.43881292e+00  1.44214429e+00  1.45587503e+00  1.48370186e+00
  1.49686395e+00  1.49966716e+00  1.52633992e+00  1.52904759e+00
  1.54435308e+00  1.57844973e+00  1.60749290e+00  1.64113349e+00
  1.66876549e+00  1.67399540e+00  1.74210095e+00  1.81187123e+00
  1.84254770e+00  1.87746686e+00  1.89015532e+00  1.92753491e+00
  1.98163497e+00  2.00547030e+00  2.07738001e+00  2.11280221e+00
  2.16429719e+00  2.24653809e+00  2.28764266e+00  2.34037125e+00
  2.39536560e+00  2.43459947e+00  2.46373169e+00  2.47809152e+00
  2.51212066e+00  2.54719377e+00  2.61887529e+00  2.67232443e+00
  2.68510130e+00  2.71835563e+00  2.75878609e+00  2.79751556e+00
  2.83795805e+00  2.87007129e+00  2.87464910e+00  2.88056200e+00
  2.98166408e+00  2.99621477e+00  3.00932835e+00  3.06815349e+00
  3.09814461e+00  3.12811100e+00  3.14094525e+00  3.18789393e+00
  3.20093955e+00  3.20727605e+00  3.23214585e+00  3.25715481e+00
  3.30105864e+00  3.30294526e+00  3.30842961e+00  3.32395862e+00
  3.33589967e+00  3.35279302e+00  3.38691159e+00  3.40382032e+00
  3.41043141e+00  3.41978697e+00  3.44110352e+00  3.45988094e+00
  3.47622651e+00  3.47941549e+00  3.53486774e+00  3.53654783e+00
  3.56130744e+00  3.56787548e+00  3.61234561e+00  3.62408531e+00
  3.65408007e+00  3.67289981e+00  3.67976863e+00  3.70213569e+00
  3.70511538e+00  3.76844491e+00  3.77805500e+00  3.80874190e+00
  3.86325130e+00  3.86605717e+00  3.90237819e+00  3.92690416e+00
  3.96415879e+00  3.97464425e+00  4.02950580e+00  4.05155380e+00
  4.06473662e+00  4.08489108e+00  4.10082076e+00  4.15922971e+00
  4.16343894e+00  4.25649925e+00  4.29257978e+00  4.29687380e+00
  4.30165097e+00  4.39516351e+00  4.40100371e+00  4.43504053e+00
  4.44764156e+00  4.51051985e+00  4.52608581e+00  4.52866882e+00
  4.66144197e+00  4.68425980e+00  4.68781817e+00  4.71793782e+00
  4.78006399e+00  4.82850815e+00  4.84130585e+00  4.95422248e+00
  5.01944238e+00  5.06018658e+00  5.09133111e+00  5.15124479e+00
  5.17708974e+00  5.33305084e+00  5.34181104e+00  5.40515526e+00
  5.44841952e+00  5.49190503e+00  5.49851278e+00  5.53799639e+00
  5.58463179e+00  5.61132101e+00  5.61835224e+00  5.69423681e+00
  5.76025829e+00  5.76292151e+00  5.85769362e+00  5.88573532e+00
  5.99234284e+00  6.00531558e+00  6.09682689e+00  6.12054022e+00
  6.12818000e+00  6.15238650e+00  6.21076050e+00  6.21706684e+00
  6.29340487e+00  6.39905379e+00  6.45742037e+00  6.47219689e+00
  6.47861173e+00  6.60051169e+00  6.65425433e+00  6.72645856e+00
  6.80836562e+00  6.85482286e+00  6.91186525e+00  6.97840682e+00
  7.00578514e+00  7.05074704e+00  7.10753742e+00  7.20935345e+00
  7.23634531e+00  7.31037139e+00  7.34736517e+00  7.35715163e+00
  7.43273340e+00  7.46515951e+00  7.52986776e+00  7.53451301e+00
  7.73842077e+00  7.77334556e+00  7.92508269e+00  8.00592754e+00
  8.09688221e+00  8.46429486e+00  1.11414943e+01  1.30979580e+01
  1.33593314e+01  1.40704639e+01  1.58988061e+01  1.74246317e+01]
E1 = -1572.4670970270413  E_coul = 645.1376041701195
cycle= 5 E= -429.966345161151  delta_E= -0.000736  |g|= 0.0116  |ddm|= 0.0596
    CPU time for cycle= 5    121.11 sec, wall time      3.81 sec
diis-norm(errvec)=0.0615276
diis-c [-0.00228182  0.01915444  0.00969384 -0.23178758 -0.1452191   1.34815841]
  HOMO = -0.124496794093711  LUMO = -0.00334632008382411
  mo_energy =
[-2.06526836e+01 -2.06520459e+01 -2.05864215e+01 -1.14555154e+01
 -1.13123577e+01 -1.13113061e+01 -2.45427571e+00 -2.45415554e+00
 -2.42947721e+00 -2.42858718e+00 -2.42833142e+00 -2.42758305e+00
 -2.42721034e+00 -2.42699068e+00 -2.42091610e+00 -2.42050233e+00
 -2.41648098e+00 -2.40709978e+00 -1.64216382e+00 -1.49173033e+00
 -1.47483331e+00 -1.13360729e+00 -9.88639484e-01 -9.01447248e-01
 -8.35296820e-01 -8.10131643e-01 -7.52967618e-01 -7.26737194e-01
 -6.88489013e-01 -6.82559107e-01 -6.15966029e-01 -5.88653929e-01
 -5.47722190e-01 -5.32099451e-01 -5.08885058e-01 -2.56917181e-01
 -2.10531239e-01 -2.02741252e-01 -1.51299187e-01 -1.33237712e-01
 -1.24496794e-01 -3.34632008e-03  1.02833614e-02  1.22794552e-02
  1.84489777e-02  1.93486458e-02  2.24592704e-02  2.62333029e-02
  2.96323284e-02  3.31135087e-02  3.93164735e-02  4.35979909e-02
  4.64191683e-02  4.86102318e-02  5.49931427e-02  5.72442552e-02
  5.89464096e-02  6.00355073e-02  6.16990292e-02  6.85590894e-02
  6.95622684e-02  7.17075006e-02  7.23921379e-02  7.43925260e-02
  7.52919993e-02  7.94577244e-02  8.12879462e-02  8.30238726e-02
  8.37279484e-02  8.74021342e-02  9.02188888e-02  9.08955030e-02
  9.41428514e-02  9.63026302e-02  1.01565137e-01  1.02017740e-01
  1.02989735e-01  1.04138446e-01  1.04341102e-01  1.11029461e-01
  1.11494631e-01  1.13000569e-01  1.15190784e-01  1.20715578e-01
  1.21881486e-01  1.25139795e-01  1.28392895e-01  1.29818857e-01
  1.34231053e-01  1.38021807e-01  1.39865667e-01  1.51086336e-01
  1.52872864e-01  1.56330072e-01  1.57224140e-01  1.59950756e-01
  1.65863158e-01  1.69575698e-01  1.72230559e-01  1.76301831e-01
  1.77987470e-01  1.85990944e-01  1.90963007e-01  1.94798011e-01
  1.95422584e-01  1.99086646e-01  1.99641978e-01  2.04428790e-01
  2.05684349e-01  2.07036656e-01  2.11451915e-01  2.15416764e-01
  2.16354350e-01  2.17996132e-01  2.21651343e-01  2.22445476e-01
  2.26336241e-01  2.26574890e-01  2.32282933e-01  2.34127191e-01
  2.37979865e-01  2.40891633e-01  2.45563449e-01  2.48694376e-01
  2.53424395e-01  2.57198784e-01  2.62500263e-01  2.63676083e-01
  2.66619788e-01  2.68249606e-01  2.69042099e-01  2.74233358e-01
  2.74526820e-01  2.91190125e-01  2.94812582e-01  2.97064965e-01
  3.00659754e-01  3.02966141e-01  3.07094170e-01  3.09506944e-01
  3.10340562e-01  3.12852667e-01  3.19486898e-01  3.25325894e-01
  3.26445438e-01  3.30811601e-01  3.31691601e-01  3.36352257e-01
  3.37386947e-01  3.42880595e-01  3.45201605e-01  3.45647966e-01
  3.53306458e-01  3.55053146e-01  3.59508120e-01  3.67603908e-01
  3.70490292e-01  3.79539404e-01  3.80709024e-01  3.82576063e-01
  3.90537167e-01  3.94411119e-01  4.01921765e-01  4.03310090e-01
  4.07032439e-01  4.14008447e-01  4.16639261e-01  4.18009534e-01
  4.18415736e-01  4.20518972e-01  4.22607074e-01  4.24148836e-01
  4.24892015e-01  4.29009600e-01  4.30676696e-01  4.32994001e-01
  4.34023587e-01  4.38808194e-01  4.46969690e-01  4.51131493e-01
  4.51432965e-01  4.52394777e-01  4.56884608e-01  4.59345796e-01
  4.63039857e-01  4.68857568e-01  4.72770716e-01  4.77955603e-01
  4.80451728e-01  4.82720144e-01  4.86809069e-01  4.88941574e-01
  4.90678061e-01  4.91740445e-01  4.97422103e-01  5.04462513e-01
  5.07408542e-01  5.09532425e-01  5.15726946e-01  5.20489203e-01
  5.27010948e-01  5.31273711e-01  5.32474854e-01  5.36692175e-01
  5.38386203e-01  5.40799077e-01  5.42309272e-01  5.48390397e-01
  5.49928679e-01  5.53279261e-01  5.58017187e-01  5.60396412e-01
  5.62664679e-01  5.65554774e-01  5.67624812e-01  5.68723431e-01
  5.70645399e-01  5.74444078e-01  5.77261025e-01  5.79482015e-01
  5.82844866e-01  5.88922859e-01  5.94731854e-01  5.96448188e-01
  6.05418283e-01  6.10589844e-01  6.15806837e-01  6.23875964e-01
  6.28797125e-01  6.30905821e-01  6.37337491e-01  6.39359068e-01
  6.43414231e-01  6.48131623e-01  6.50327938e-01  6.62118132e-01
  6.62801357e-01  6.66633322e-01  6.70036483e-01  6.73485192e-01
  6.88186689e-01  6.91842996e-01  6.98246650e-01  7.05065668e-01
  7.09596929e-01  7.16582793e-01  7.22647914e-01  7.23723293e-01
  7.31155136e-01  7.35154848e-01  7.38044572e-01  7.43946359e-01
  7.47086205e-01  7.48807770e-01  7.50329182e-01  7.50950950e-01
  7.54298588e-01  7.58311305e-01  7.60992591e-01  7.61553152e-01
  7.63803103e-01  7.68883199e-01  7.76129630e-01  7.79138755e-01
  7.79834889e-01  7.80767736e-01  7.87355452e-01  7.90229133e-01
  7.92077902e-01  7.94053474e-01  7.99192676e-01  8.03032293e-01
  8.04478510e-01  8.06226555e-01  8.07476536e-01  8.13719362e-01
  8.14965091e-01  8.16142194e-01  8.22018632e-01  8.22954965e-01
  8.28587793e-01  8.39862101e-01  8.40515591e-01  8.46107564e-01
  8.47798136e-01  8.50089047e-01  8.55806374e-01  8.57164573e-01
  8.59068404e-01  8.66948161e-01  8.72419593e-01  8.73155169e-01
  8.76089680e-01  8.79114915e-01  8.81433053e-01  8.84683324e-01
  8.89045078e-01  8.92532428e-01  8.94933457e-01  8.97312255e-01
  9.02683228e-01  9.06766174e-01  9.11397616e-01  9.18310893e-01
  9.22755288e-01  9.24493019e-01  9.28510700e-01  9.31513439e-01
  9.33973813e-01  9.38583488e-01  9.39449996e-01  9.42480735e-01
  9.49845636e-01  9.50259682e-01  9.50809836e-01  9.55926964e-01
  9.56604869e-01  9.61168009e-01  9.65813297e-01  9.74423674e-01
  9.82109663e-01  9.87978771e-01  9.89186149e-01  9.91927260e-01
  9.95533395e-01  9.97765760e-01  1.00697793e+00  1.00854889e+00
  1.01026224e+00  1.01292432e+00  1.01677914e+00  1.01976465e+00
  1.02243778e+00  1.02388401e+00  1.02662612e+00  1.03010358e+00
  1.03263625e+00  1.03373454e+00  1.04288667e+00  1.04437079e+00
  1.04954006e+00  1.05172112e+00  1.05569653e+00  1.06092867e+00
  1.06194661e+00  1.06900628e+00  1.07209704e+00  1.07446202e+00
  1.08130578e+00  1.08252187e+00  1.08428801e+00  1.09233504e+00
  1.09388018e+00  1.10015625e+00  1.10771450e+00  1.11108377e+00
  1.11571096e+00  1.12074615e+00  1.12450216e+00  1.13299669e+00
  1.13641158e+00  1.14531001e+00  1.15150447e+00  1.15905201e+00
  1.16176460e+00  1.17281084e+00  1.17815053e+00  1.18207650e+00
  1.18356751e+00  1.18560797e+00  1.18910569e+00  1.19570493e+00
  1.19725687e+00  1.20549257e+00  1.20671389e+00  1.21083362e+00
  1.21647066e+00  1.22168687e+00  1.22520437e+00  1.23375104e+00
  1.23503121e+00  1.23797596e+00  1.24273677e+00  1.24401761e+00
  1.25046259e+00  1.25946141e+00  1.26191028e+00  1.26843005e+00
  1.27040300e+00  1.27703293e+00  1.28083349e+00  1.29140265e+00
  1.29500425e+00  1.29915206e+00  1.30173370e+00  1.30557499e+00
  1.31148068e+00  1.31332811e+00  1.32018566e+00  1.32418934e+00
  1.32663833e+00  1.33326537e+00  1.33810779e+00  1.34427859e+00
  1.35036816e+00  1.35858342e+00  1.36420178e+00  1.37484402e+00
  1.37860794e+00  1.38217905e+00  1.40067541e+00  1.41305397e+00
  1.41561290e+00  1.42507509e+00  1.43263368e+00  1.43556744e+00
  1.43872271e+00  1.44264421e+00  1.45587693e+00  1.48412948e+00
  1.49698097e+00  1.50007861e+00  1.52607116e+00  1.52897557e+00
  1.54433664e+00  1.57812295e+00  1.60756329e+00  1.64062984e+00
  1.66860899e+00  1.67348413e+00  1.74174482e+00  1.81144186e+00
  1.84303409e+00  1.87694001e+00  1.88988697e+00  1.92740783e+00
  1.98149726e+00  2.00462655e+00  2.07653184e+00  2.11299137e+00
  2.16375736e+00  2.24610209e+00  2.28652644e+00  2.33947466e+00
  2.39460074e+00  2.43423824e+00  2.46348896e+00  2.47740920e+00
  2.51175065e+00  2.54650615e+00  2.61816513e+00  2.67197866e+00
  2.68503886e+00  2.71785703e+00  2.75866941e+00  2.79706540e+00
  2.83771803e+00  2.86935235e+00  2.87434638e+00  2.88009467e+00
  2.98127244e+00  2.99650327e+00  3.00902347e+00  3.06754022e+00
  3.09784219e+00  3.12768561e+00  3.14051386e+00  3.18738253e+00
  3.20154930e+00  3.20650428e+00  3.23194336e+00  3.25786163e+00
  3.30042357e+00  3.30275341e+00  3.30872607e+00  3.32343207e+00
  3.33570402e+00  3.35229909e+00  3.38643655e+00  3.40436954e+00
  3.41085316e+00  3.41956647e+00  3.44083843e+00  3.45959006e+00
  3.47579073e+00  3.47898973e+00  3.53412108e+00  3.53587641e+00
  3.56177275e+00  3.56698892e+00  3.61204244e+00  3.62378741e+00
  3.65407561e+00  3.67275928e+00  3.67939234e+00  3.70124322e+00
  3.70485330e+00  3.76820043e+00  3.77708625e+00  3.80811375e+00
[...]
  mo_energy =
[-2.06497005e+01 -2.06492622e+01 -2.05858680e+01 -1.14546731e+01
 -1.13117280e+01 -1.13106774e+01 -2.45325697e+00 -2.45256841e+00
 -2.43076504e+00 -2.42992956e+00 -2.42838258e+00 -2.42614707e+00
 -2.42476845e+00 -2.42461789e+00 -2.42018749e+00 -2.41975916e+00
 -2.41749810e+00 -2.40680616e+00 -1.64127464e+00 -1.49140027e+00
 -1.47374612e+00 -1.13322987e+00 -9.87989795e-01 -9.00645821e-01
 -8.34800990e-01 -8.09800602e-01 -7.52523981e-01 -7.26349410e-01
 -6.88267794e-01 -6.81977021e-01 -6.14886792e-01 -5.88094112e-01
 -5.47574399e-01 -5.31655434e-01 -5.08328048e-01 -2.56120356e-01
 -2.09399031e-01 -2.03046890e-01 -1.51114104e-01 -1.34562356e-01
 -1.25140185e-01 -2.41032337e-03  1.07872055e-02  1.23573005e-02
  1.94858498e-02  2.01369930e-02  2.28932912e-02  2.66682371e-02
  2.93825783e-02  3.30678079e-02  3.94623202e-02  4.36705714e-02
  4.65612549e-02  4.91090718e-02  5.51471991e-02  5.70808838e-02
  5.92682712e-02  6.02411624e-02  6.18121500e-02  6.85328285e-02
  6.94883544e-02  7.17266672e-02  7.25179990e-02  7.46617080e-02
  7.57914071e-02  7.94932982e-02  8.17573540e-02  8.32152957e-02
  8.39252727e-02  8.73695718e-02  9.05326355e-02  9.07862249e-02
  9.37072168e-02  9.63484477e-02  1.01720436e-01  1.02151852e-01
  1.03229827e-01  1.04364801e-01  1.04499316e-01  1.11027378e-01
  1.11376513e-01  1.13100318e-01  1.15317348e-01  1.20768443e-01
  1.22030260e-01  1.25563420e-01  1.28292267e-01  1.30080746e-01
  1.34216252e-01  1.38308853e-01  1.40177950e-01  1.51249445e-01
  1.52842349e-01  1.56665256e-01  1.57144906e-01  1.59921413e-01
  1.66216497e-01  1.70028792e-01  1.72677276e-01  1.75995867e-01
  1.77602663e-01  1.86135293e-01  1.90926371e-01  1.94960116e-01
  1.95693756e-01  1.99327711e-01  2.00097205e-01  2.04658891e-01
  2.05981404e-01  2.07065593e-01  2.11576516e-01  2.15854569e-01
  2.16732049e-01  2.18364060e-01  2.21859456e-01  2.22838008e-01
  2.26078954e-01  2.26782637e-01  2.32568886e-01  2.34417103e-01
  2.38066057e-01  2.40979396e-01  2.45497713e-01  2.48846268e-01
  2.53421263e-01  2.57485287e-01  2.62837517e-01  2.64064336e-01
  2.66668773e-01  2.68351040e-01  2.69201802e-01  2.74204567e-01
  2.74549900e-01  2.91525476e-01  2.95047182e-01  2.97822037e-01
  3.01228682e-01  3.02845338e-01  3.06892912e-01  3.09714617e-01
  3.10569043e-01  3.12900722e-01  3.19556516e-01  3.25566026e-01
  3.26617530e-01  3.30911754e-01  3.31758367e-01  3.36569199e-01
  3.37289842e-01  3.42821543e-01  3.45506835e-01  3.46017820e-01
  3.53497209e-01  3.55487982e-01  3.59944059e-01  3.67840120e-01
  3.70642268e-01  3.80136240e-01  3.81234626e-01  3.82828680e-01
  3.90654789e-01  3.94576589e-01  4.02499678e-01  4.03323444e-01
  4.07171487e-01  4.14021214e-01  4.16819496e-01  4.18204705e-01
  4.18521839e-01  4.20121614e-01  4.22720864e-01  4.24148192e-01
  4.25126161e-01  4.29578635e-01  4.31094821e-01  4.33094092e-01
  4.34356851e-01  4.39266460e-01  4.47191847e-01  4.51555089e-01
  4.51828516e-01  4.53175142e-01  4.57138714e-01  4.59749572e-01
  4.63362897e-01  4.69059893e-01  4.73261919e-01  4.77497687e-01
  4.80543482e-01  4.82841977e-01  4.87052491e-01  4.88777710e-01
  4.91011516e-01  4.91976462e-01  4.97476877e-01  5.04813905e-01
  5.07519806e-01  5.09773477e-01  5.16070310e-01  5.21128642e-01
  5.27273794e-01  5.31617064e-01  5.32955126e-01  5.37167480e-01
  5.38747191e-01  5.41299478e-01  5.42610439e-01  5.48818737e-01
  5.50249009e-01  5.53450038e-01  5.58349677e-01  5.60578393e-01
  5.63091275e-01  5.65754005e-01  5.67627805e-01  5.68811492e-01
  5.70910529e-01  5.74868497e-01  5.77608330e-01  5.79726199e-01
  5.82880386e-01  5.89532049e-01  5.95032123e-01  5.96898852e-01
  6.05811931e-01  6.10394655e-01  6.16042219e-01  6.24200855e-01
  6.29103729e-01  6.31321926e-01  6.37369784e-01  6.39403971e-01
  6.43431780e-01  6.48368515e-01  6.50514901e-01  6.62332274e-01
  6.62930402e-01  6.66983580e-01  6.70397604e-01  6.73961537e-01
  6.88575489e-01  6.92211350e-01  6.98515387e-01  7.05408409e-01
  7.10152799e-01  7.16922076e-01  7.22836726e-01  7.23783826e-01
  7.31447185e-01  7.35287780e-01  7.38284106e-01  7.44413963e-01
  7.47398899e-01  7.49201901e-01  7.50628577e-01  7.51338673e-01
  7.54407167e-01  7.59127413e-01  7.61412162e-01  7.62105053e-01
  7.64383214e-01  7.69340378e-01  7.76560979e-01  7.79101806e-01
  7.79894021e-01  7.80939167e-01  7.87671142e-01  7.90799676e-01
  7.92767774e-01  7.94357470e-01  7.99612287e-01  8.03633625e-01
  8.05112019e-01  8.06419997e-01  8.07765796e-01  8.14720355e-01
  8.15560403e-01  8.16763340e-01  8.22792689e-01  8.23620524e-01
  8.28462826e-01  8.40126848e-01  8.41371621e-01  8.46646077e-01
  8.48399141e-01  8.50713176e-01  8.56741108e-01  8.57560773e-01
  8.59593018e-01  8.67420234e-01  8.72497818e-01  8.73527518e-01
  8.76654116e-01  8.79466169e-01  8.81105332e-01  8.84969775e-01
  8.89089123e-01  8.93064282e-01  8.95493295e-01  8.97937373e-01
  9.02682732e-01  9.06882568e-01  9.11412295e-01  9.18948431e-01
  9.22937959e-01  9.24770888e-01  9.28862826e-01  9.31663915e-01
  9.34314180e-01  9.38835631e-01  9.39478477e-01  9.42894720e-01
  9.50196137e-01  9.50346658e-01  9.51293306e-01  9.56056467e-01
  9.56881879e-01  9.61536329e-01  9.66109072e-01  9.74333657e-01
  9.82680383e-01  9.89006932e-01  9.89615595e-01  9.92422176e-01
  9.96094318e-01  9.98297065e-01  1.00698323e+00  1.00883908e+00
  1.01055528e+00  1.01383810e+00  1.01698146e+00  1.02046563e+00
  1.02277753e+00  1.02409757e+00  1.02680103e+00  1.03041331e+00
  1.03335541e+00  1.03393855e+00  1.04315681e+00  1.04458467e+00
  1.05026942e+00  1.05203151e+00  1.05558370e+00  1.06100414e+00
  1.06195329e+00  1.06936683e+00  1.07255489e+00  1.07477739e+00
  1.08148336e+00  1.08300063e+00  1.08478027e+00  1.09261973e+00
  1.09423233e+00  1.10069850e+00  1.10786411e+00  1.11101776e+00
  1.11615172e+00  1.12105023e+00  1.12467118e+00  1.13346212e+00
  1.13667495e+00  1.14563552e+00  1.15199669e+00  1.15985120e+00
  1.16200442e+00  1.17320497e+00  1.17838016e+00  1.18235857e+00
  1.18407370e+00  1.18562919e+00  1.18905057e+00  1.19617719e+00
  1.19759832e+00  1.20565881e+00  1.20705787e+00  1.21114093e+00
  1.21679810e+00  1.22195514e+00  1.22560629e+00  1.23454458e+00
  1.23560764e+00  1.23813450e+00  1.24360932e+00  1.24402492e+00
  1.25080851e+00  1.25984455e+00  1.26168790e+00  1.26860976e+00
  1.27073433e+00  1.27676220e+00  1.28136986e+00  1.29192061e+00
  1.29536814e+00  1.29945788e+00  1.30199630e+00  1.30592128e+00
  1.31170404e+00  1.31371595e+00  1.32071951e+00  1.32461704e+00
  1.32767710e+00  1.33356358e+00  1.33857069e+00  1.34458844e+00
  1.35085206e+00  1.35861369e+00  1.36446449e+00  1.37502824e+00
  1.37877922e+00  1.38215630e+00  1.40094167e+00  1.41323082e+00
  1.41589685e+00  1.42524632e+00  1.43305120e+00  1.43581447e+00
  1.43891024e+00  1.44318768e+00  1.45600864e+00  1.48442126e+00
  1.49708730e+00  1.50002180e+00  1.52632405e+00  1.52928615e+00
  1.54453147e+00  1.57824456e+00  1.60772815e+00  1.64097015e+00
  1.66889644e+00  1.67372904e+00  1.74199481e+00  1.81156565e+00
  1.84308692e+00  1.87722344e+00  1.89021878e+00  1.92764172e+00
  1.98169824e+00  2.00509678e+00  2.07702369e+00  2.11310682e+00
  2.16409484e+00  2.24645610e+00  2.28714748e+00  2.34000273e+00
  2.39508734e+00  2.43456418e+00  2.46386899e+00  2.47783188e+00
  2.51204321e+00  2.54698797e+00  2.61855349e+00  2.67228035e+00
  2.68522581e+00  2.71823632e+00  2.75894407e+00  2.79735969e+00
  2.83805106e+00  2.86983757e+00  2.87462590e+00  2.88046647e+00
  2.98164845e+00  2.99694139e+00  3.00943024e+00  3.06793777e+00
  3.09825302e+00  3.12799378e+00  3.14093331e+00  3.18773533e+00
  3.20264050e+00  3.20699770e+00  3.23232005e+00  3.25846417e+00
  3.30085265e+00  3.30331176e+00  3.30970544e+00  3.32378373e+00
  3.33606951e+00  3.35267164e+00  3.38690200e+00  3.40438089e+00
  3.41211760e+00  3.42028596e+00  3.44049486e+00  3.45970864e+00
  3.47604074e+00  3.47929400e+00  3.53445664e+00  3.53629250e+00
  3.56276529e+00  3.56753546e+00  3.61245228e+00  3.62420136e+00
  3.65469298e+00  3.67267697e+00  3.67958332e+00  3.70179650e+00
  3.70512873e+00  3.76852206e+00  3.77764259e+00  3.80858654e+00
  3.86294325e+00  3.86568679e+00  3.90200448e+00  3.92681234e+00
  3.96370465e+00  3.97436449e+00  4.02923648e+00  4.05124976e+00
  4.06443740e+00  4.08458950e+00  4.10057733e+00  4.16014052e+00
  4.16315001e+00  4.25610205e+00  4.29217949e+00  4.29612864e+00
  4.30142007e+00  4.39467465e+00  4.40076963e+00  4.43480772e+00
  4.44729729e+00  4.50994721e+00  4.52569549e+00  4.52828090e+00
  4.66113121e+00  4.68420474e+00  4.68769796e+00  4.71865329e+00
  4.78029760e+00  4.82814624e+00  4.84055693e+00  4.95381896e+00
  5.01886796e+00  5.05952512e+00  5.09084017e+00  5.15088156e+00
  5.17676908e+00  5.33251059e+00  5.34128029e+00  5.40476949e+00
  5.44794805e+00  5.49171765e+00  5.49794789e+00  5.53761863e+00
  5.58522011e+00  5.61184615e+00  5.61818856e+00  5.69385066e+00
  5.75972733e+00  5.76254415e+00  5.85707356e+00  5.88521705e+00
  5.99146982e+00  6.00505517e+00  6.09607770e+00  6.12066246e+00
  6.12779126e+00  6.15176727e+00  6.20995913e+00  6.21646391e+00
  6.29284808e+00  6.39806751e+00  6.45669209e+00  6.47126731e+00
  6.47762241e+00  6.59968366e+00  6.65337191e+00  6.72603947e+00
  6.80817132e+00  6.85410149e+00  6.91109728e+00  6.97881174e+00
  7.00654534e+00  7.05070307e+00  7.10763707e+00  7.20840383e+00
  7.23523826e+00  7.30915613e+00  7.34573968e+00  7.35578467e+00
  7.43240491e+00  7.46481848e+00  7.52970267e+00  7.53293658e+00
  7.73804551e+00  7.77173597e+00  7.92501882e+00  8.00509631e+00
  8.09541610e+00  8.46431822e+00  1.11407806e+01  1.30978402e+01
  1.33572466e+01  1.40702961e+01  1.58989250e+01  1.74256665e+01]
E1 = -1572.483346666989  E_coul = 645.1531131980694
cycle= 18 E= -429.967085773149  delta_E= -3.34e-10  |g|= 5.69e-06  |ddm|= 0.000105
    CPU time for cycle= 18    111.96 sec, wall time      3.53 sec
  HOMO = -0.12514011301345  LUMO = -0.00241068725556444
  mo_energy =
[-2.06497029e+01 -2.06492642e+01 -2.05858704e+01 -1.14546746e+01
 -1.13117293e+01 -1.13106787e+01 -2.45325744e+00 -2.45256847e+00
 -2.43076530e+00 -2.42992980e+00 -2.42838248e+00 -2.42614750e+00
 -2.42476982e+00 -2.42461899e+00 -2.42018713e+00 -2.41975897e+00
 -2.41749741e+00 -2.40680753e+00 -1.64127626e+00 -1.49140194e+00
 -1.47374763e+00 -1.13323088e+00 -9.87990802e-01 -9.00646990e-01
 -8.34802087e-01 -8.09801904e-01 -7.52524849e-01 -7.26350734e-01
 -6.88268730e-01 -6.81978074e-01 -6.14888017e-01 -5.88094934e-01
 -5.47576040e-01 -5.31656732e-01 -5.08328990e-01 -2.56120492e-01
 -2.09399281e-01 -2.03047046e-01 -1.51114289e-01 -1.34562370e-01
 -1.25140113e-01 -2.41068726e-03  1.07870398e-02  1.23571008e-02
  1.94855648e-02  2.01367736e-02  2.28931727e-02  2.66681336e-02
  2.93825552e-02  3.30676882e-02  3.94620535e-02  4.36705467e-02
  4.65611926e-02  4.91089298e-02  5.51471187e-02  5.70808375e-02
  5.92682408e-02  6.02410888e-02  6.18120499e-02  6.85328569e-02
  6.94882744e-02  7.17265602e-02  7.25179181e-02  7.46616477e-02
  7.57913724e-02  7.94932019e-02  8.17572498e-02  8.32152274e-02
  8.39252141e-02  8.73695700e-02  9.05325176e-02  9.07861281e-02
  9.37072732e-02  9.63483867e-02  1.01720352e-01  1.02151817e-01
  1.03229835e-01  1.04364726e-01  1.04499229e-01  1.11027319e-01
  1.11376462e-01  1.13100189e-01  1.15317359e-01  1.20768401e-01
  1.22030321e-01  1.25563366e-01  1.28292386e-01  1.30080560e-01
  1.34216227e-01  1.38308735e-01  1.40177824e-01  1.51249087e-01
  1.52842231e-01  1.56665098e-01  1.57144735e-01  1.59921213e-01
  1.66216386e-01  1.70028669e-01  1.72677173e-01  1.75995716e-01
  1.77602610e-01  1.86135137e-01  1.90926125e-01  1.94959852e-01
  1.95693598e-01  1.99327636e-01  2.00096819e-01  2.04658717e-01
  2.05981236e-01  2.07065267e-01  2.11576184e-01  2.15854541e-01
  2.16732006e-01  2.18363894e-01  2.21859285e-01  2.22837871e-01
  2.26079083e-01  2.26782525e-01  2.32568788e-01  2.34416899e-01
  2.38065777e-01  2.40979259e-01  2.45497567e-01  2.48846194e-01
  2.53421210e-01  2.57485119e-01  2.62837247e-01  2.64064047e-01
  2.66668549e-01  2.68350831e-01  2.69201771e-01  2.74204349e-01
  2.74549686e-01  2.91525296e-01  2.95047012e-01  2.97821752e-01
  3.01228445e-01  3.02845172e-01  3.06892803e-01  3.09714458e-01
  3.10568956e-01  3.12900710e-01  3.19556409e-01  3.25565777e-01
  3.26617331e-01  3.30911476e-01  3.31758124e-01  3.36568991e-01
  3.37289626e-01  3.42821350e-01  3.45506602e-01  3.46017582e-01
  3.53496820e-01  3.55487654e-01  3.59943742e-01  3.67839924e-01
  3.70642094e-01  3.80135973e-01  3.81234381e-01  3.82828485e-01
  3.90654644e-01  3.94576428e-01  4.02499485e-01  4.03323285e-01
  4.07171463e-01  4.14021119e-01  4.16819199e-01  4.18204576e-01
  4.18521568e-01  4.20121487e-01  4.22720689e-01  4.24147990e-01
  4.25125990e-01  4.29578357e-01  4.31094687e-01  4.33093740e-01
  4.34356418e-01  4.39266046e-01  4.47191430e-01  4.51554764e-01
  4.51828239e-01  4.53174995e-01  4.57138531e-01  4.59749236e-01
  4.63362578e-01  4.69059537e-01  4.73261739e-01  4.77497603e-01
  4.80543231e-01  4.82841878e-01  4.87052433e-01  4.88777674e-01
  4.91011353e-01  4.91976219e-01  4.97476724e-01  5.04813602e-01
  5.07519519e-01  5.09773197e-01  5.16070163e-01  5.21128511e-01
  5.27273287e-01  5.31616914e-01  5.32954905e-01  5.37167079e-01
  5.38747061e-01  5.41299400e-01  5.42610037e-01  5.48818455e-01
  5.50248785e-01  5.53449885e-01  5.58349442e-01  5.60578274e-01
  5.63090939e-01  5.65753887e-01  5.67627531e-01  5.68811337e-01
  5.70910308e-01  5.74868430e-01  5.77608017e-01  5.79725957e-01
  5.82880052e-01  5.89531796e-01  5.95031921e-01  5.96898573e-01
  6.05811647e-01  6.10394395e-01  6.16041891e-01  6.24200713e-01
  6.29103411e-01  6.31321568e-01  6.37369367e-01  6.39403577e-01
  6.43431488e-01  6.48368140e-01  6.50514710e-01  6.62331853e-01
  6.62930011e-01  6.66983213e-01  6.70397313e-01  6.73961195e-01
  6.88574958e-01  6.92210870e-01  6.98515006e-01  7.05408062e-01
  7.10152423e-01  7.16921399e-01  7.22836363e-01  7.23783582e-01
  7.31446893e-01  7.35287453e-01  7.38283822e-01  7.44413736e-01
  7.47398678e-01  7.49201558e-01  7.50628295e-01  7.51338328e-01
  7.54406863e-01  7.59126969e-01  7.61411975e-01  7.62104681e-01
  7.64382928e-01  7.69340024e-01  7.76560517e-01  7.79101566e-01
  7.79893712e-01  7.80938908e-01  7.87670910e-01  7.90799473e-01
  7.92767446e-01  7.94357248e-01  7.99611885e-01  8.03633202e-01
  8.05111789e-01  8.06419694e-01  8.07765526e-01  8.14720016e-01
  8.15560094e-01  8.16763071e-01  8.22792454e-01  8.23620236e-01
  8.28462604e-01  8.40126593e-01  8.41371279e-01  8.46645746e-01
  8.48398835e-01  8.50712848e-01  8.56740811e-01  8.57560436e-01
  8.59592769e-01  8.67419915e-01  8.72497611e-01  8.73527200e-01
  8.76653772e-01  8.79465889e-01  8.81105158e-01  8.84969421e-01
  8.89088829e-01  8.93063981e-01  8.95493059e-01  8.97936956e-01
  9.02682417e-01  9.06882209e-01  9.11412047e-01  9.18947990e-01
  9.22937624e-01  9.24770615e-01  9.28862460e-01  9.31663639e-01
  9.34313889e-01  9.38835292e-01  9.39478242e-01  9.42894432e-01
  9.50195779e-01  9.50346440e-01  9.51292890e-01  9.56056191e-01
  9.56881615e-01  9.61536101e-01  9.66108732e-01  9.74333457e-01
  9.82680163e-01  9.89006620e-01  9.89615182e-01  9.92421851e-01
  9.96094014e-01  9.98296711e-01  1.00698286e+00  1.00883888e+00
  1.01055493e+00  1.01383787e+00  1.01698119e+00  1.02046525e+00
  1.02277719e+00  1.02409718e+00  1.02680078e+00  1.03041309e+00
  1.03335505e+00  1.03393827e+00  1.04315647e+00  1.04458440e+00
  1.05026903e+00  1.05203139e+00  1.05558346e+00  1.06100396e+00
  1.06195301e+00  1.06936652e+00  1.07255454e+00  1.07477717e+00
  1.08148303e+00  1.08300016e+00  1.08477987e+00  1.09261946e+00
  1.09423192e+00  1.10069801e+00  1.10786380e+00  1.11101750e+00
  1.11615145e+00  1.12104994e+00  1.12467077e+00  1.13346178e+00
  1.13667466e+00  1.14563520e+00  1.15199637e+00  1.15985090e+00
  1.16200408e+00  1.17320449e+00  1.17837997e+00  1.18235831e+00
  1.18407364e+00  1.18562900e+00  1.18905045e+00  1.19617694e+00
  1.19759805e+00  1.20565847e+00  1.20705766e+00  1.21114060e+00
  1.21679768e+00  1.22195484e+00  1.22560598e+00  1.23454428e+00
  1.23560740e+00  1.23813425e+00  1.24360906e+00  1.24402469e+00
  1.25080826e+00  1.25984428e+00  1.26168772e+00  1.26860934e+00
  1.27073400e+00  1.27676204e+00  1.28136949e+00  1.29192014e+00
  1.29536770e+00  1.29945755e+00  1.30199606e+00  1.30592097e+00
  1.31170356e+00  1.31371555e+00  1.32071914e+00  1.32461666e+00
  1.32767699e+00  1.33356343e+00  1.33857020e+00  1.34458794e+00
  1.35085172e+00  1.35861319e+00  1.36446411e+00  1.37502796e+00
  1.37877878e+00  1.38215587e+00  1.40094121e+00  1.41323040e+00
  1.41589632e+00  1.42524574e+00  1.43305071e+00  1.43581395e+00
  1.43890960e+00  1.44318771e+00  1.45600814e+00  1.48442086e+00
  1.49708675e+00  1.50002132e+00  1.52632336e+00  1.52928556e+00
  1.54453074e+00  1.57824407e+00  1.60772733e+00  1.64096945e+00
  1.66889539e+00  1.67372838e+00  1.74199399e+00  1.81156528e+00
  1.84308574e+00  1.87722270e+00  1.89021783e+00  1.92764066e+00
  1.98169714e+00  2.00509581e+00  2.07702269e+00  2.11310551e+00
  2.16409373e+00  2.24645501e+00  2.28714637e+00  2.34000177e+00
  2.39508632e+00  2.43456314e+00  2.46386777e+00  2.47783080e+00
  2.51204224e+00  2.54698688e+00  2.61855269e+00  2.67227950e+00
  2.68522478e+00  2.71823539e+00  2.75894291e+00  2.79735902e+00
  2.83805005e+00  2.86983655e+00  2.87462494e+00  2.88046561e+00
  2.98164738e+00  2.99694093e+00  3.00942926e+00  3.06793701e+00
  3.09825206e+00  3.12799299e+00  3.14093239e+00  3.18773463e+00
  3.20264018e+00  3.20699686e+00  3.23231930e+00  3.25846373e+00
  3.30085199e+00  3.30331095e+00  3.30970497e+00  3.32378309e+00
  3.33606855e+00  3.35267076e+00  3.38690087e+00  3.40438048e+00
  3.41211668e+00  3.42028504e+00  3.44049431e+00  3.45970795e+00
  3.47604001e+00  3.47929319e+00  3.53445589e+00  3.53629166e+00
  3.56276494e+00  3.56753443e+00  3.61245178e+00  3.62420095e+00
  3.65469305e+00  3.67267693e+00  3.67958274e+00  3.70179554e+00
  3.70512775e+00  3.76852101e+00  3.77764170e+00  3.80858548e+00
  3.86294243e+00  3.86568637e+00  3.90200390e+00  3.92681138e+00
  3.96370381e+00  3.97436393e+00  4.02923594e+00  4.05124912e+00
  4.06443682e+00  4.08458876e+00  4.10057649e+00  4.16013949e+00
  4.16314916e+00  4.25610145e+00  4.29217913e+00  4.29612792e+00
  4.30141934e+00  4.39467401e+00  4.40076893e+00  4.43480697e+00
  4.44729675e+00  4.50994662e+00  4.52569509e+00  4.52828040e+00
  4.66113049e+00  4.68420401e+00  4.68769697e+00  4.71865180e+00
  4.78029623e+00  4.82814510e+00  4.84055610e+00  4.95381811e+00
  5.01886732e+00  5.05952426e+00  5.09083938e+00  5.15088077e+00
  5.17676783e+00  5.33250963e+00  5.34127936e+00  5.40476888e+00
  5.44794741e+00  5.49171654e+00  5.49794686e+00  5.53761797e+00
  5.58521855e+00  5.61184455e+00  5.61818770e+00  5.69384986e+00
  5.75972634e+00  5.76254334e+00  5.85707262e+00  5.88521599e+00
  5.99146877e+00  6.00505414e+00  6.09607662e+00  6.12066100e+00
  6.12779046e+00  6.15176626e+00  6.20995765e+00  6.21646274e+00
  6.29284710e+00  6.39806613e+00  6.45669100e+00  6.47126619e+00
  6.47762100e+00  6.59968246e+00  6.65337055e+00  6.72603793e+00
  6.80816971e+00  6.85409991e+00  6.91109587e+00  6.97881001e+00
  7.00654356e+00  7.05070144e+00  7.10763543e+00  7.20840230e+00
  7.23523681e+00  7.30915460e+00  7.34573821e+00  7.35578324e+00
  7.43240330e+00  7.46481683e+00  7.52970098e+00  7.53293518e+00
  7.73804389e+00  7.77173458e+00  7.92501712e+00  8.00509473e+00
  8.09541467e+00  8.46431662e+00  1.11407791e+01  1.30978389e+01
  1.33572449e+01  1.40702948e+01  1.58989239e+01  1.74256648e+01]
E1 = -1572.4833833924615  E_coul = 645.1531499234615
Extra cycle  E= -429.96708577323  delta_E= -8.04e-11  |g|= 3.56e-06  |ddm|= 3.35e-05
    CPU time for scf_cycle   2904.21 sec, wall time     91.68 sec
    CPU time for SCF   2904.28 sec, wall time     91.68 sec
converged SCF energy = -429.96708577323
