#INFO: **** input file is /burg/ccce/users/eav2136/projects/batteries/01_mp2/hf_script.py ****
#!/usr/bin/env python3
from pyscf import gto, scf, mp
import sys
from fileutils import dump
import h5py

mol = gto.Mole()
mol.verbose = 10
mol.atom = f"geom_{sys.argv[1]}.xyz"
mol.basis = "ccpvtz"
mol.unit = "ANG"
mol.build()

mf = scf.RHF(mol)
# determine the output of mf.kernel()
mf.kernel()

conv = mf.converged
e_tot = mf.e_tot
mo_energy = mf.mo_energy
mo_coeff = mf.mo_coeff

dataout = {}
dataout["e_tot"] = e_tot
dataout["conv"] = conv
dump(dataout, f"data/hf_geom_{sys.argv[1]}.json")

with h5py.File(f"data/hf_geom_{sys.argv[1]}.h5", "w") as f:
    f.create_dataset("mo_energy", data=mo_energy)
    f.create_dataset("mo_coeff", data=mo_coeff)#INFO: ******************** input file end ********************


System: uname_result(system='Linux', node='g103', release='4.18.0-193.el8.x86_64', version='#1 SMP Fri Mar 27 14:35:58 UTC 2020', machine='x86_64')  Threads 32
Python 3.10.12 (main, Jul 29 2023, 11:27:27) [GCC 13.2.0]
numpy 1.25.1  scipy 1.10.1
Date: Fri Jan 19 11:27:49 2024
PySCF version 2.0.1
PySCF path  /burg/berkelbach/users/eav2136/builds/pyscf/projected-cvs/pyscf
GIT ORIG_HEAD 0bfbc692adf3ea63b8a509210433219cd1c472a2
GIT HEAD (branch projected-cvs) e14caaa2dddc538b9be2d86f01e5b456fc92da36

[ENV] PYSCF_TMPDIR /burg/ccce/users/eav2136/projects/batteries/01_mp2/tmp
[ENV] PYSCF_MAX_MEMORY 700000
[CONFIG] DEBUG = False
[CONFIG] MAX_MEMORY = 700000
[CONFIG] TMPDIR = /burg/ccce/users/eav2136/projects/batteries/01_mp2/tmp
[CONFIG] UNIT = angstrom
[CONFIG] VERBOSE = 3
[CONFIG] conf_file = None
[INPUT] verbose = 10
[INPUT] max_memory = 700000 
[INPUT] num. atoms = 12
[INPUT] num. electrons = 52
[INPUT] charge = 0
[INPUT] spin (= nelec alpha-beta = 2S) = 0
[INPUT] symmetry False subgroup None
[INPUT] Mole.unit = ANG
[INPUT]  1 C      4.889700000000   4.599650000000  10.258310000000 AA    9.240193831286   8.692078768856  19.385396400887 Bohr
[INPUT]  2 O      4.870170000000   4.245790000000   8.952570000000 AA    9.203287480073   8.023380282417  16.917905410997 Bohr
[INPUT]  3 C      5.310840000000   5.193710000000   8.233300000000 AA   10.036033091385   9.814689470415  15.558682101382 Bohr
[INPUT]  4 O      5.765780000000   6.111200000000   8.982240000000 AA   10.895745094495  11.548494292442  16.973973585113 Bohr
[INPUT]  5 C      5.774150000000   5.702340000000  10.272330000000 AA   10.911562102157  10.775860869152  19.411890361153 Bohr
[INPUT]  6 O      5.299720000000   5.216150000000   7.112960000000 AA   10.015019336880   9.857094924650  13.441546334986 Bohr
[INPUT]  7 H      5.212360000000   3.798320000000  10.814180000000 AA    9.849932862638   7.177784533458  20.435838461749 Bohr
[INPUT]  8 H      3.953110000000   4.871240000000  10.548100000000 AA    7.470295240279   9.205309487026  19.933020134525 Bohr
[INPUT]  9 H      5.464720000000   6.479910000000  10.867980000000 AA   10.326824147433  12.245255211830  20.537505727251 Bohr
[INPUT] 10 H      6.716790000000   5.418990000000  10.529430000000 AA   12.692893536217  10.240406971757  19.897738947779 Bohr
[INPUT] 11 Li     5.263950000000   5.263950000000   5.263950000000 AA    9.947423833404   9.947423833404   9.947423833404 Bohr
[INPUT] 12 Li     5.263950000000   1.754650000000   5.263950000000 AA    9.947423833404   3.315807944468   9.947423833404 Bohr
[INPUT] ---------------- BASIS SET ---------------- 
[INPUT] l, kappa, [nprim/nctr], expnt,             c_1 c_2 ...
[INPUT] C
[INPUT] 0    0    [8    /2   ]  8236              0.000531 -0.000113
                                1235              0.004108 -0.000878
                                280.8             0.021087 -0.00454
                                79.27             0.081853 -0.018133
                                25.59             0.234817 -0.05576
                                8.997             0.434401 -0.126895
                                3.319             0.346129 -0.170352
                                0.3643            -0.008983 0.598684
[INPUT] 0    0    [1    /1   ]  0.9059               1
[INPUT] 0    0    [1    /1   ]  0.1285               1
[INPUT] 1    0    [3    /1   ]  18.71             0.014031
                                4.133             0.086866
                                1.2               0.290216
[INPUT] 1    0    [1    /1   ]  0.3827               1
[INPUT] 1    0    [1    /1   ]  0.1209               1
[INPUT] 2    0    [1    /1   ]  1.097                1
[INPUT] 2    0    [1    /1   ]  0.318                1
[INPUT] 3    0    [1    /1   ]  0.761                1
[INPUT] H
[INPUT] 0    0    [3    /1   ]  33.87             0.006068
                                5.095             0.045308
                                1.159             0.202822
[INPUT] 0    0    [1    /1   ]  0.3258               1
[INPUT] 0    0    [1    /1   ]  0.1027               1
[INPUT] 1    0    [1    /1   ]  1.407                1
[INPUT] 1    0    [1    /1   ]  0.388                1
[INPUT] 2    0    [1    /1   ]  1.057                1
[INPUT] O
[INPUT] 0    0    [8    /2   ]  15330             0.000508 -0.000115
                                2299              0.003929 -0.000895
                                522.4             0.020243 -0.004636
                                147.3             0.079181 -0.018724
                                47.55             0.230687 -0.058463
                                16.76             0.433118 -0.136463
                                6.207             0.35026 -0.17574
                                0.6882            -0.008154 0.603418
[INPUT] 0    0    [1    /1   ]  1.752                1
[INPUT] 0    0    [1    /1   ]  0.2384               1
[INPUT] 1    0    [3    /1   ]  34.46             0.015928
                                7.749             0.09974
                                2.28              0.310492
[INPUT] 1    0    [1    /1   ]  0.7156               1
[INPUT] 1    0    [1    /1   ]  0.214                1
[INPUT] 2    0    [1    /1   ]  2.314                1
[INPUT] 2    0    [1    /1   ]  0.645                1
[INPUT] 3    0    [1    /1   ]  1.428                1
[INPUT] Li
[INPUT] 0    0    [9    /2   ]  5988              0.000133 -2.1e-05
                                898.9             0.001025 -0.000161
                                205.9             0.005272 -0.00082
                                59.24             0.020929 -0.003326
                                19.87             0.06634 -0.010519
                                7.406             0.165775 -0.028097
                                2.93              0.315038 -0.055936
                                1.189             0.393523 -0.099237
                                0.4798            0.19087 -0.112189
[INPUT] 0    0    [1    /1   ]  0.07509              1
[INPUT] 0    0    [1    /1   ]  0.02832              1
[INPUT] 1    0    [3    /1   ]  3.266             0.00863
                                0.6511            0.047538
                                0.1696            0.209772
[INPUT] 1    0    [1    /1   ]  0.05578              1
[INPUT] 1    0    [1    /1   ]  0.0205               1
[INPUT] 2    0    [1    /1   ]  0.1874               1
[INPUT] 2    0    [1    /1   ]  0.0801               1
[INPUT] 3    0    [1    /1   ]  0.1829               1

nuclear repulsion = 300.072860603376
number of shells = 96
number of NR pGTOs = 402
number of NR cGTOs = 296
basis = ccpvtz
ecp = {}
bas 0, expnt(s) = [8.236e+03 1.235e+03 2.808e+02 7.927e+01 2.559e+01 8.997e+00 3.319e+00
 3.643e-01]
bas 1, expnt(s) = [0.9059]
bas 2, expnt(s) = [0.1285]
bas 3, expnt(s) = [18.71   4.133  1.2  ]
bas 4, expnt(s) = [0.3827]
bas 5, expnt(s) = [0.1209]
bas 6, expnt(s) = [1.097]
bas 7, expnt(s) = [0.318]
bas 8, expnt(s) = [0.761]
bas 9, expnt(s) = [1.533e+04 2.299e+03 5.224e+02 1.473e+02 4.755e+01 1.676e+01 6.207e+00
 6.882e-01]
bas 10, expnt(s) = [1.752]
bas 11, expnt(s) = [0.2384]
bas 12, expnt(s) = [34.46   7.749  2.28 ]
bas 13, expnt(s) = [0.7156]
bas 14, expnt(s) = [0.214]
bas 15, expnt(s) = [2.314]
bas 16, expnt(s) = [0.645]
bas 17, expnt(s) = [1.428]
bas 18, expnt(s) = [8.236e+03 1.235e+03 2.808e+02 7.927e+01 2.559e+01 8.997e+00 3.319e+00
 3.643e-01]
bas 19, expnt(s) = [0.9059]
bas 20, expnt(s) = [0.1285]
bas 21, expnt(s) = [18.71   4.133  1.2  ]
bas 22, expnt(s) = [0.3827]
bas 23, expnt(s) = [0.1209]
bas 24, expnt(s) = [1.097]
bas 25, expnt(s) = [0.318]
bas 26, expnt(s) = [0.761]
bas 27, expnt(s) = [1.533e+04 2.299e+03 5.224e+02 1.473e+02 4.755e+01 1.676e+01 6.207e+00
 6.882e-01]
bas 28, expnt(s) = [1.752]
bas 29, expnt(s) = [0.2384]
bas 30, expnt(s) = [34.46   7.749  2.28 ]
bas 31, expnt(s) = [0.7156]
bas 32, expnt(s) = [0.214]
bas 33, expnt(s) = [2.314]
bas 34, expnt(s) = [0.645]
bas 35, expnt(s) = [1.428]
bas 36, expnt(s) = [8.236e+03 1.235e+03 2.808e+02 7.927e+01 2.559e+01 8.997e+00 3.319e+00
 3.643e-01]
bas 37, expnt(s) = [0.9059]
bas 38, expnt(s) = [0.1285]
bas 39, expnt(s) = [18.71   4.133  1.2  ]
bas 40, expnt(s) = [0.3827]
bas 41, expnt(s) = [0.1209]
bas 42, expnt(s) = [1.097]
bas 43, expnt(s) = [0.318]
bas 44, expnt(s) = [0.761]
bas 45, expnt(s) = [1.533e+04 2.299e+03 5.224e+02 1.473e+02 4.755e+01 1.676e+01 6.207e+00
 6.882e-01]
bas 46, expnt(s) = [1.752]
bas 47, expnt(s) = [0.2384]
bas 48, expnt(s) = [34.46   7.749  2.28 ]
bas 49, expnt(s) = [0.7156]
bas 50, expnt(s) = [0.214]
bas 51, expnt(s) = [2.314]
bas 52, expnt(s) = [0.645]
bas 53, expnt(s) = [1.428]
bas 54, expnt(s) = [33.87   5.095  1.159]
bas 55, expnt(s) = [0.3258]
bas 56, expnt(s) = [0.1027]
bas 57, expnt(s) = [1.407]
bas 58, expnt(s) = [0.388]
bas 59, expnt(s) = [1.057]
bas 60, expnt(s) = [33.87   5.095  1.159]
bas 61, expnt(s) = [0.3258]
bas 62, expnt(s) = [0.1027]
bas 63, expnt(s) = [1.407]
bas 64, expnt(s) = [0.388]
bas 65, expnt(s) = [1.057]
bas 66, expnt(s) = [33.87   5.095  1.159]
bas 67, expnt(s) = [0.3258]
bas 68, expnt(s) = [0.1027]
bas 69, expnt(s) = [1.407]
bas 70, expnt(s) = [0.388]
bas 71, expnt(s) = [1.057]
bas 72, expnt(s) = [33.87   5.095  1.159]
bas 73, expnt(s) = [0.3258]
bas 74, expnt(s) = [0.1027]
bas 75, expnt(s) = [1.407]
bas 76, expnt(s) = [0.388]
bas 77, expnt(s) = [1.057]
bas 78, expnt(s) = [5.988e+03 8.989e+02 2.059e+02 5.924e+01 1.987e+01 7.406e+00 2.930e+00
 1.189e+00 4.798e-01]
bas 79, expnt(s) = [0.07509]
bas 80, expnt(s) = [0.02832]
bas 81, expnt(s) = [3.266  0.6511 0.1696]
bas 82, expnt(s) = [0.05578]
bas 83, expnt(s) = [0.0205]
bas 84, expnt(s) = [0.1874]
bas 85, expnt(s) = [0.0801]
bas 86, expnt(s) = [0.1829]
bas 87, expnt(s) = [5.988e+03 8.989e+02 2.059e+02 5.924e+01 1.987e+01 7.406e+00 2.930e+00
 1.189e+00 4.798e-01]
bas 88, expnt(s) = [0.07509]
bas 89, expnt(s) = [0.02832]
bas 90, expnt(s) = [3.266  0.6511 0.1696]
bas 91, expnt(s) = [0.05578]
bas 92, expnt(s) = [0.0205]
bas 93, expnt(s) = [0.1874]
bas 94, expnt(s) = [0.0801]
bas 95, expnt(s) = [0.1829]
CPU time:         0.69
arg.atm = [[ 6 20  1 23  0  0]
 [ 8 24  1 27  0  0]
 [ 6 28  1 31  0  0]
 [ 8 32  1 35  0  0]
 [ 6 36  1 39  0  0]
 [ 8 40  1 43  0  0]
 [ 1 44  1 47  0  0]
 [ 1 48  1 51  0  0]
 [ 1 52  1 55  0  0]
 [ 1 56  1 59  0  0]
 [ 3 60  1 63  0  0]
 [ 3 64  1 67  0  0]]
arg.bas = [[  0   0   8   2   0  68  76   0]
 [  0   0   1   1   0  92  93   0]
 [  0   0   1   1   0  94  95   0]
 [  0   1   3   1   0  96  99   0]
 [  0   1   1   1   0 102 103   0]
 [  0   1   1   1   0 104 105   0]
 [  0   2   1   1   0 106 107   0]
 [  0   2   1   1   0 108 109   0]
 [  0   3   1   1   0 110 111   0]
 [  1   0   8   2   0 128 136   0]
 [  1   0   1   1   0 152 153   0]
 [  1   0   1   1   0 154 155   0]
 [  1   1   3   1   0 156 159   0]
 [  1   1   1   1   0 162 163   0]
 [  1   1   1   1   0 164 165   0]
 [  1   2   1   1   0 166 167   0]
 [  1   2   1   1   0 168 169   0]
 [  1   3   1   1   0 170 171   0]
 [  2   0   8   2   0  68  76   0]
 [  2   0   1   1   0  92  93   0]
 [  2   0   1   1   0  94  95   0]
 [  2   1   3   1   0  96  99   0]
 [  2   1   1   1   0 102 103   0]
 [  2   1   1   1   0 104 105   0]
 [  2   2   1   1   0 106 107   0]
 [  2   2   1   1   0 108 109   0]
 [  2   3   1   1   0 110 111   0]
 [  3   0   8   2   0 128 136   0]
 [  3   0   1   1   0 152 153   0]
 [  3   0   1   1   0 154 155   0]
 [  3   1   3   1   0 156 159   0]
 [  3   1   1   1   0 162 163   0]
 [  3   1   1   1   0 164 165   0]
 [  3   2   1   1   0 166 167   0]
 [  3   2   1   1   0 168 169   0]
 [  3   3   1   1   0 170 171   0]
 [  4   0   8   2   0  68  76   0]
 [  4   0   1   1   0  92  93   0]
 [  4   0   1   1   0  94  95   0]
 [  4   1   3   1   0  96  99   0]
 [  4   1   1   1   0 102 103   0]
 [  4   1   1   1   0 104 105   0]
 [  4   2   1   1   0 106 107   0]
 [  4   2   1   1   0 108 109   0]
 [  4   3   1   1   0 110 111   0]
 [  5   0   8   2   0 128 136   0]
 [  5   0   1   1   0 152 153   0]
 [  5   0   1   1   0 154 155   0]
 [  5   1   3   1   0 156 159   0]
 [  5   1   1   1   0 162 163   0]
 [  5   1   1   1   0 164 165   0]
 [  5   2   1   1   0 166 167   0]
 [  5   2   1   1   0 168 169   0]
 [  5   3   1   1   0 170 171   0]
 [  6   0   3   1   0 112 115   0]
 [  6   0   1   1   0 118 119   0]
 [  6   0   1   1   0 120 121   0]
 [  6   1   1   1   0 122 123   0]
 [  6   1   1   1   0 124 125   0]
 [  6   2   1   1   0 126 127   0]
 [  7   0   3   1   0 112 115   0]
 [  7   0   1   1   0 118 119   0]
 [  7   0   1   1   0 120 121   0]
 [  7   1   1   1   0 122 123   0]
 [  7   1   1   1   0 124 125   0]
 [  7   2   1   1   0 126 127   0]
 [  8   0   3   1   0 112 115   0]
 [  8   0   1   1   0 118 119   0]
 [  8   0   1   1   0 120 121   0]
 [  8   1   1   1   0 122 123   0]
 [  8   1   1   1   0 124 125   0]
 [  8   2   1   1   0 126 127   0]
 [  9   0   3   1   0 112 115   0]
 [  9   0   1   1   0 118 119   0]
 [  9   0   1   1   0 120 121   0]
 [  9   1   1   1   0 122 123   0]
 [  9   1   1   1   0 124 125   0]
 [  9   2   1   1   0 126 127   0]
 [ 10   0   9   2   0 172 181   0]
 [ 10   0   1   1   0 199 200   0]
 [ 10   0   1   1   0 201 202   0]
 [ 10   1   3   1   0 203 206   0]
 [ 10   1   1   1   0 209 210   0]
 [ 10   1   1   1   0 211 212   0]
 [ 10   2   1   1   0 213 214   0]
 [ 10   2   1   1   0 215 216   0]
 [ 10   3   1   1   0 217 218   0]
 [ 11   0   9   2   0 172 181   0]
 [ 11   0   1   1   0 199 200   0]
 [ 11   0   1   1   0 201 202   0]
 [ 11   1   3   1   0 203 206   0]
 [ 11   1   1   1   0 209 210   0]
 [ 11   1   1   1   0 211 212   0]
 [ 11   2   1   1   0 213 214   0]
 [ 11   2   1   1   0 215 216   0]
 [ 11   3   1   1   0 217 218   0]]
arg.env = [ 0.00000000e+00  0.00000000e+00  0.00000000e+00  0.00000000e+00
  0.00000000e+00  0.00000000e+00  0.00000000e+00  0.00000000e+00
  0.00000000e+00  0.00000000e+00  0.00000000e+00  0.00000000e+00
  0.00000000e+00  0.00000000e+00  0.00000000e+00  0.00000000e+00
  0.00000000e+00  0.00000000e+00  0.00000000e+00  0.00000000e+00
  9.24019383e+00  8.69207877e+00  1.93853964e+01  0.00000000e+00
  9.20328748e+00  8.02338028e+00  1.69179054e+01  0.00000000e+00
  1.00360331e+01  9.81468947e+00  1.55586821e+01  0.00000000e+00
  1.08957451e+01  1.15484943e+01  1.69739736e+01  0.00000000e+00
  1.09115621e+01  1.07758609e+01  1.94118904e+01  0.00000000e+00
  1.00150193e+01  9.85709492e+00  1.34415463e+01  0.00000000e+00
  9.84993286e+00  7.17778453e+00  2.04358385e+01  0.00000000e+00
  7.47029524e+00  9.20530949e+00  1.99330201e+01  0.00000000e+00
  1.03268241e+01  1.22452552e+01  2.05375057e+01  0.00000000e+00
  1.26928935e+01  1.02404070e+01  1.98977389e+01  0.00000000e+00
  9.94742383e+00  9.94742383e+00  9.94742383e+00  0.00000000e+00
  9.94742383e+00  3.31580794e+00  9.94742383e+00  0.00000000e+00
  8.23600000e+03  1.23500000e+03  2.80800000e+02  7.92700000e+01
  2.55900000e+01  8.99700000e+00  3.31900000e+00  3.64300000e-01
  1.18480296e+00  2.20874210e+00  3.73316324e+00  5.61216719e+00
  6.89519583e+00  5.82409515e+00  2.19663441e+00 -1.08712663e-02
 -4.28969670e-01 -8.03166571e-01 -1.36745981e+00 -2.11525239e+00
 -2.78571299e+00 -2.89453423e+00 -1.83934657e+00  1.23268730e+00
  9.05900000e-01  2.34598494e+00  1.28500000e-01  5.42241022e-01
  1.87100000e+01  4.13300000e+00  1.20000000e+00  4.47572721e+00
  4.19627876e+00  2.98800046e+00  3.82700000e-01  8.78127282e-01
  1.20900000e-01  2.07977938e-01  1.09700000e+00  3.06825171e+00
  3.18000000e-01  3.51379844e-01  7.61000000e-01  1.06690522e+00
  3.38700000e+01  5.09500000e+00  1.15900000e+00  9.04334519e-01
  1.63100455e+00  2.40491525e+00  3.25800000e-01  1.08950276e+00
  1.02700000e-01  4.58345379e-01  1.40700000e+00  4.47045795e+00
  3.88000000e-01  8.93354953e-01  1.05700000e+00  2.87515071e+00
  1.53300000e+04  2.29900000e+03  5.22400000e+02  1.47300000e+02
  4.75500000e+01  1.67600000e+01  6.20700000e+00  6.88200000e-01
  1.81067529e+00  3.37486577e+00  5.72265412e+00  8.66150357e+00
  1.08070276e+01  9.28179538e+00  3.56346173e+00 -1.59395830e-02
 -6.86527364e-01 -1.28759909e+00 -2.19507417e+00 -3.43047366e+00
 -4.58719692e+00 -4.89805685e+00 -2.99457591e+00  1.97563931e+00
  1.75200000e+00  3.84738459e+00  2.38400000e-01  8.61975084e-01
  3.44600000e+01  7.74900000e+00  2.28000000e+00  1.00262994e+01
  9.72213774e+00  6.55849668e+00  7.15600000e-01  1.92009319e+00
  2.14000000e-01  4.24621137e-01  2.31400000e+00  1.13283134e+01
  6.45000000e-01  1.21132000e+00  1.42800000e+00  4.39692268e+00
  5.98800000e+03  8.98900000e+02  2.05900000e+02  5.92400000e+01
  1.98700000e+01  7.40600000e+00  2.93000000e+00  1.18900000e+00
  4.79800000e-01  2.29069316e-01  4.25756548e-01  7.25056076e-01
  1.13074246e+00  1.57971158e+00  1.88304523e+00  1.78512072e+00
  1.13373211e+00  2.78411257e-01 -1.33552750e-01 -2.46934407e-01
 -4.16416863e-01 -6.63522613e-01 -9.24900580e-01 -1.17847379e+00
 -1.17034612e+00 -1.05567981e+00 -6.04251387e-01  7.50900000e-02
  3.62411193e-01  2.83200000e-02  1.74415453e-01  3.26600000e+00
  6.51100000e-01  1.69600000e-01  4.55280795e-01  3.34078737e-01
  2.74333054e-01  5.57800000e-02  7.90828897e-02  2.05000000e-02
  2.26295917e-02  1.87400000e-01  1.39275961e-01  8.01000000e-02
  3.14692425e-02  1.82900000e-01  4.31510332e-02]
ecpbas  = []


******** <class 'pyscf.scf.hf.RHF'> ********
method = RHF
initial guess = minao
damping factor = 0
level_shift factor = 0
DIIS = <class 'pyscf.scf.diis.CDIIS'>
diis_start_cycle = 1
diis_space = 8
SCF conv_tol = 1e-09
SCF conv_tol_grad = None
SCF max_cycles = 50
direct_scf = True
direct_scf_tol = 1e-13
chkfile to save SCF result = /burg/ccce/users/eav2136/projects/batteries/01_mp2/tmp/tmppjsoy2f0
max_memory 700000 MB (current use 94 MB)
Set gradient conv threshold to 3.16228e-05
Nelec from initial guess = 51.99644375788567
E1 = -1078.6000467309382  E_coul = 420.0136170365026
init E= -358.513569091059
cond(S) = 21231.50324695084
    CPU time for initialize scf     44.02 sec, wall time      1.52 sec
  HOMO = -0.12072562632805  LUMO = -0.0265745725288462
  mo_energy =
[-20.84181872 -20.79372299 -20.79272748 -11.3783309  -11.35292201
 -11.34780364  -2.48677289  -2.47885609  -2.16717261  -1.79305483
  -1.65741886  -1.33622458  -1.05166187  -0.89836663  -0.80185995
  -0.7815811   -0.68692048  -0.65809974  -0.61811258  -0.5696817
  -0.49920596  -0.49090822  -0.43637804  -0.40391082  -0.32437434
  -0.12072563  -0.02657457   0.02390036   0.03014873   0.03884675
   0.05133654   0.05513725   0.06115696   0.09866278   0.10563326
   0.11432496   0.1218638    0.12814676   0.14009812   0.15108135
   0.15811506   0.1614761    0.16840374   0.17321533   0.18429428
   0.21071569   0.21248604   0.22224039   0.22840089   0.23808207
   0.24054391   0.26201853   0.27230378   0.28259143   0.29952534
   0.32378212   0.32789125   0.34430998   0.34616265   0.37378734
   0.40545862   0.41034899   0.42555029   0.43211885   0.44549466
   0.44887723   0.45252126   0.46925773   0.47554481   0.49308406
   0.51406132   0.53159018   0.53851681   0.54279045   0.57020845
   0.57839243   0.59328955   0.61148446   0.61676948   0.63630547
   0.64709177   0.6537121    0.66126977   0.67451424   0.67907127
   0.69472995   0.70960483   0.72574652   0.73203643   0.74106866
   0.74621742   0.75238022   0.75705268   0.76405895   0.77446149
   0.78071969   0.78769596   0.79897877   0.80272364   0.81869865
   0.82403373   0.84151396   0.85457591   0.85671512   0.86140071
   0.88017879   0.89780888   0.92590964   0.94262649   0.94508724
   0.96759776   1.00256008   1.00825359   1.03678744   1.03899344
   1.05545761   1.06888948   1.08006383   1.11219634   1.13668408
   1.18426118   1.19424454   1.23337857   1.25101838   1.26020125
   1.27880136   1.28803087   1.29057828   1.2950021    1.3648497
   1.40290941   1.41744665   1.4355143    1.45142907   1.46379335
   1.47912375   1.54262061   1.54433947   1.57696902   1.577984
   1.64318015   1.68539371   1.78595352   1.80330422   1.83494755
   1.8598404    1.90471669   1.9770575    2.006488     2.04510764
   2.10464971   2.16520252   2.23585205   2.26143591   2.2752632
   2.34843359   2.40372074   2.43058028   2.46616799   2.4950007
   2.54085467   2.58428451   2.61679426   2.64999626   2.69423697
   2.74597563   2.77389056   2.78949072   2.83733447   2.86208588
   2.87753835   2.9536231    2.990867     3.02737087   3.03207457
   3.10576917   3.11139409   3.17435399   3.17945535   3.19389001
   3.23191551   3.26701146   3.29510867   3.30604196   3.32736976
   3.34330875   3.37614835   3.38158502   3.4077221    3.46022165
   3.4647212    3.49293856   3.51644529   3.53508757   3.59861898
   3.66307482   3.66431904   3.67839168   3.69015537   3.74995011
   3.77615632   3.83965298   3.86436195   3.88017403   3.89647349
   3.94728706   3.96004728   4.00933613   4.02980326   4.03489076
   4.06100395   4.09276277   4.13795792   4.22990872   4.25917007
   4.26613323   4.28873027   4.35514683   4.38096005   4.41882901
   4.41997069   4.4790895    4.51563639   4.51793413   4.55229563
   4.60931138   4.64313943   4.65921242   4.69696595   4.77872508
   4.80506215   4.92960315   4.97517779   5.0086483    5.03233088
   5.10327255   5.11905742   5.2718561    5.30836517   5.36246483
   5.39568681   5.41651555   5.42579715   5.47464246   5.50337218
   5.50633832   5.56584382   5.64389434   5.69842335   5.72672407
   5.8143877    5.82225925   5.93441482   5.94302947   6.01687006
   6.04210944   6.08971819   6.10726267   6.1333579    6.15869199
   6.24043972   6.33142946   6.37372857   6.40152388   6.41652762
   6.52180639   6.57730058   6.61824687   6.65883758   6.73876781
   6.81631356   6.85419418   6.86154025   6.93626756   6.98963742
   7.07560237   7.13246861   7.18233586   7.20740857   7.22112581
   7.25801076   7.35690576   7.3901448    7.43620186   7.570845
   7.67330557   7.78584399   7.85581868   7.98985706   8.3717045
  10.67486387  12.94466353  13.18814148  13.89440979  15.81204917
  16.97427935]
E1 = -1078.1609142727611  E_coul = 422.7550475641059
cycle= 1 E= -355.333006105279  delta_E= 3.18  |g|= 0.918  |ddm|= 2.38
    CPU time for cycle= 1      6.43 sec, wall time      0.20 sec
diis-norm(errvec)=2.81868
diis-c [-7.94492996  1.        ]
  HOMO = -0.117972886729787  LUMO = 0.0237027393623126
  mo_energy =
[-20.62228186 -20.61223157 -20.30887748 -11.70494237 -11.45858907
 -11.45518967  -2.41022283  -2.39705743  -1.70980534  -1.52397341
  -1.4698815   -1.21501866  -1.05000002  -0.94687148  -0.88948809
  -0.83123116  -0.79862786  -0.72851026  -0.72333573  -0.66634614
  -0.64080199  -0.63123659  -0.54731346  -0.50472724  -0.47124646
  -0.11797289   0.02370274   0.04574467   0.0467111    0.0586429
   0.06485703   0.06762845   0.08457266   0.10000898   0.11760908
   0.13915791   0.14473713   0.14794511   0.15524303   0.16469426
   0.16814462   0.17967906   0.18532577   0.19416609   0.2029085
   0.21728775   0.25113092   0.25506953   0.26224726   0.26612887
   0.27283977   0.27957504   0.28243587   0.28815416   0.30134627
   0.31418889   0.33307287   0.34956446   0.36085586   0.36756419
   0.38774571   0.43155284   0.45163399   0.45487008   0.46139522
   0.46699132   0.49163802   0.49449534   0.50484645   0.51182818
   0.52169699   0.52650635   0.54736461   0.54927955   0.56364869
   0.58153346   0.59004394   0.5937938    0.60027691   0.61739796
   0.63617393   0.6769608    0.68822374   0.72152955   0.73081805
   0.73891443   0.74400567   0.74902552   0.75711247   0.78385146
   0.79021591   0.79543731   0.79967349   0.80359283   0.81136465
   0.82548029   0.83029248   0.83306101   0.83950385   0.8504018
   0.85749794   0.87282037   0.87748278   0.88785176   0.8994002
   0.91219983   0.92295683   0.93501465   0.96576273   0.97965487
   0.99390121   1.01364743   1.0171713    1.03141162   1.04317243
   1.05928256   1.06857093   1.1013641    1.12460404   1.13174135
   1.17646679   1.18107151   1.1907567    1.2199722    1.22945636
   1.24374759   1.25133914   1.25390318   1.27774513   1.34409852
   1.37102913   1.38530591   1.40515368   1.44408325   1.44980007
   1.46718693   1.50739972   1.52626885   1.54434951   1.59457649
   1.61781091   1.66200206   1.74049936   1.78949251   1.79916974
   1.85273985   1.92189134   1.93650261   2.01880584   2.08201076
   2.1189719    2.17140263   2.20601646   2.2460839    2.28099239
   2.32784543   2.39466117   2.41718944   2.44992711   2.46706836
   2.53247003   2.54833055   2.5830728    2.61999728   2.6455149
   2.71987126   2.74604089   2.76818654   2.78304397   2.80032461
   2.87645678   2.90386258   2.94444872   2.95962712   3.01139664
   3.03274554   3.03851625   3.11347403   3.12851351   3.14135131
   3.19547489   3.21702207   3.23512779   3.2421941    3.24788546
   3.25488995   3.28929244   3.33938501   3.36681699   3.38932249
   3.40178682   3.46607885   3.47660744   3.47991529   3.53194433
   3.60577413   3.62589428   3.65010189   3.6800036    3.69929456
   3.72529785   3.79279396   3.80633639   3.82289689   3.84045147
   3.90002169   3.90683029   3.96525479   3.99107025   4.0046262
   4.01325844   4.0393741    4.09837153   4.19548437   4.21066298
   4.24051669   4.24188801   4.32768986   4.33554732   4.36511031
   4.38744188   4.43857523   4.45639306   4.47317891   4.59114356
   4.60999177   4.62837392   4.74800652   4.7580506    4.78830508
   4.8572331    4.89123331   4.9513867    4.99659121   5.03377485
   5.08972898   5.12999874   5.2674248    5.28097255   5.33725596
   5.3809945    5.43829121   5.45389781   5.47164914   5.57353836
   5.6445321    5.64689157   5.68600456   5.70051941   5.7233519
   5.79512308   5.85358507   5.93098284   5.96853291   6.02691918
   6.05124353   6.08952775   6.10983156   6.16779597   6.19768979
   6.22476666   6.34953622   6.39309708   6.40082455   6.42161856
   6.56114094   6.58736054   6.70559559   6.78991389   6.82323173
   6.8947728    7.05302239   7.0574015    7.08393853   7.13242001
   7.17722703   7.22098081   7.27165207   7.29021395   7.3502476
   7.42556052   7.49503434   7.51910043   7.53420449   7.74087567
   7.74566879   7.95640655   7.98318768   8.05937462   8.46261267
  10.68712789  12.9719849   13.23709361  13.8710972   15.71718047
  17.03018827]
E1 = -1079.7161451282757  E_coul = 424.1894691174771
cycle= 2 E= -355.453815407422  delta_E= -0.121  |g|= 0.535  |ddm|= 0.789
    CPU time for cycle= 2      6.43 sec, wall time      0.20 sec
diis-norm(errvec)=1.64374
diis-c [-0.6502271  0.3465473  0.6534527]
  HOMO = -0.128969042299088  LUMO = 0.0165755880246817
  mo_energy =
[-2.06484960e+01 -2.06464771e+01 -2.06353913e+01 -1.14526414e+01
 -1.13128483e+01 -1.13105714e+01 -2.44578048e+00 -2.41804261e+00
 -1.64146250e+00 -1.50261141e+00 -1.47125432e+00 -1.13727645e+00
 -9.90603202e-01 -9.01082876e-01 -8.35539786e-01 -8.16455317e-01
 -7.56112249e-01 -7.30807737e-01 -6.93607875e-01 -6.80626485e-01
 -6.09630483e-01 -5.85119034e-01 -5.54477366e-01 -5.38315624e-01
 -5.06410509e-01 -1.28969042e-01  1.65755880e-02  4.11565947e-02
  4.65983702e-02  5.55615029e-02  6.39478246e-02  6.53235984e-02
  8.06000317e-02  1.13960598e-01  1.29824622e-01  1.36421573e-01
  1.50590647e-01  1.53639540e-01  1.58532072e-01  1.69255242e-01
  1.71436222e-01  1.86041552e-01  1.91576914e-01  2.04292638e-01
  2.13267509e-01  2.17089343e-01  2.44759600e-01  2.48307902e-01
  2.51842230e-01  2.61088660e-01  2.72440654e-01  2.85846973e-01
  2.95466339e-01  2.98095374e-01  3.10818029e-01  3.29898494e-01
  3.31402173e-01  3.53308449e-01  3.57900077e-01  3.94548628e-01
  4.11617198e-01  4.42331382e-01  4.48822659e-01  4.54138127e-01
  4.73787010e-01  4.81005560e-01  4.88657680e-01  5.11075262e-01
  5.12254960e-01  5.18779759e-01  5.23321268e-01  5.38995295e-01
  5.48325261e-01  5.59201105e-01  5.75816427e-01  6.03597983e-01
  6.18383615e-01  6.27038515e-01  6.49511298e-01  6.65257419e-01
  6.70770042e-01  6.99619967e-01  7.06185516e-01  7.12243992e-01
  7.24519383e-01  7.31768027e-01  7.38115758e-01  7.60974719e-01
  7.66010966e-01  7.82249582e-01  7.87426428e-01  7.90803406e-01
  7.99144228e-01  8.02745001e-01  8.08021883e-01  8.12994120e-01
  8.24431546e-01  8.25982977e-01  8.36213749e-01  8.48363765e-01
  8.57174338e-01  8.64843252e-01  8.75523945e-01  8.80228096e-01
  8.93549290e-01  9.18047747e-01  9.22612866e-01  9.43247925e-01
  9.62979500e-01  9.76322242e-01  1.00038229e+00  1.01340398e+00
  1.03243192e+00  1.05073349e+00  1.05205397e+00  1.05923212e+00
  1.07773376e+00  1.08979728e+00  1.11353340e+00  1.14841142e+00
  1.19835922e+00  1.20193421e+00  1.22188695e+00  1.24905132e+00
  1.25674929e+00  1.26402837e+00  1.27293498e+00  1.28855872e+00
  1.30172576e+00  1.36303013e+00  1.40376788e+00  1.41720371e+00
  1.43649104e+00  1.45056194e+00  1.47312906e+00  1.48658933e+00
  1.53261654e+00  1.56177250e+00  1.56989823e+00  1.57153197e+00
  1.63598430e+00  1.69105110e+00  1.78636115e+00  1.81877351e+00
  1.84595288e+00  1.87541475e+00  1.92942478e+00  1.98194533e+00
  2.05729334e+00  2.06170681e+00  2.12657910e+00  2.19893108e+00
  2.25490409e+00  2.28980242e+00  2.30841477e+00  2.36007716e+00
  2.42562389e+00  2.45241773e+00  2.48084446e+00  2.49176306e+00
  2.56877522e+00  2.58500702e+00  2.63975465e+00  2.64770275e+00
  2.70785036e+00  2.76242220e+00  2.80055828e+00  2.81653035e+00
  2.83370852e+00  2.86789897e+00  2.90135607e+00  2.95090758e+00
  3.00145046e+00  3.03124318e+00  3.05535188e+00  3.10431694e+00
  3.10853905e+00  3.17805711e+00  3.18968853e+00  3.21051408e+00
  3.22394675e+00  3.27496477e+00  3.30025781e+00  3.30226194e+00
  3.32330758e+00  3.32782913e+00  3.36687552e+00  3.39317687e+00
  3.42031136e+00  3.45306469e+00  3.46522217e+00  3.51990842e+00
  3.52112317e+00  3.53823181e+00  3.59763634e+00  3.66738750e+00
  3.68187007e+00  3.68854942e+00  3.71302765e+00  3.76161663e+00
  3.78540562e+00  3.84875309e+00  3.85300785e+00  3.88088643e+00
  3.88632837e+00  3.95243386e+00  3.95477226e+00  4.01582426e+00
  4.03339825e+00  4.04866658e+00  4.05312070e+00  4.08410222e+00
  4.14545255e+00  4.23684689e+00  4.25809612e+00  4.27943402e+00
  4.28376441e+00  4.36800572e+00  4.38081021e+00  4.42106285e+00
  4.42667450e+00  4.48336269e+00  4.50651483e+00  4.51192222e+00
  4.63117809e+00  4.64806114e+00  4.67195817e+00  4.67595510e+00
  4.74102932e+00  4.81134287e+00  4.82499260e+00  4.94322243e+00
  4.99655866e+00  5.04762974e+00  5.06895822e+00  5.13466320e+00
  5.13612311e+00  5.30949284e+00  5.33491273e+00  5.38807029e+00
  5.43047731e+00  5.45653938e+00  5.47480225e+00  5.52360555e+00
  5.56955662e+00  5.59420950e+00  5.59593702e+00  5.67959611e+00
  5.73614035e+00  5.74569181e+00  5.84324523e+00  5.86143302e+00
  5.97601741e+00  5.98995402e+00  6.07981674e+00  6.09966376e+00
  6.11546067e+00  6.14395277e+00  6.19312581e+00  6.20668186e+00
  6.27663780e+00  6.38722794e+00  6.42905840e+00  6.44172089e+00
  6.46280295e+00  6.58234190e+00  6.62867525e+00  6.69998128e+00
  6.77729603e+00  6.82715818e+00  6.89633326e+00  6.95037115e+00
  6.96700406e+00  7.02625646e+00  7.08064512e+00  7.17384619e+00
  7.21894247e+00  7.28837624e+00  7.30085852e+00  7.33467308e+00
  7.35408757e+00  7.44418327e+00  7.48470174e+00  7.52379950e+00
  7.69665869e+00  7.75788256e+00  7.88890758e+00  7.95362382e+00
  8.07130783e+00  8.45101481e+00  1.07158976e+01  1.29982549e+01
  1.32614249e+01  1.39274648e+01  1.58268268e+01  1.70192020e+01]
E1 = -1079.4112866798364  E_coul = 423.8388604672009
cycle= 3 E= -355.499565609259  delta_E= -0.0458  |g|= 0.0772  |ddm|= 0.246
    CPU time for cycle= 3      6.37 sec, wall time      0.20 sec
diis-norm(errvec)=0.233659
diis-c [-0.03210062 -0.06583493 -0.0207626   1.08659754]
  HOMO = -0.129803173800463  LUMO = 0.0163879260759508
  mo_energy =
[-2.06608761e+01 -2.06555892e+01 -2.05616135e+01 -1.14519279e+01
 -1.13067657e+01 -1.13046652e+01 -2.44680625e+00 -2.42258398e+00
 -1.64181670e+00 -1.48537261e+00 -1.47614249e+00 -1.13232159e+00
 -9.88107533e-01 -9.02004222e-01 -8.34859871e-01 -8.08097509e-01
 -7.51330070e-01 -7.23237749e-01 -6.85895698e-01 -6.82124764e-01
 -6.17439773e-01 -5.86593933e-01 -5.41364323e-01 -5.29087319e-01
 -5.08196877e-01 -1.29803174e-01  1.63879261e-02  4.07032240e-02
  4.60768270e-02  5.48998659e-02  6.34407213e-02  6.49178960e-02
  8.05035477e-02  1.16117710e-01  1.30607387e-01  1.36376022e-01
  1.50982954e-01  1.54407258e-01  1.59378557e-01  1.69727332e-01
  1.70901813e-01  1.86032876e-01  1.93535815e-01  2.05574388e-01
  2.16717262e-01  2.20266831e-01  2.44630768e-01  2.48511515e-01
  2.51088984e-01  2.60999175e-01  2.71732329e-01  2.85388662e-01
  2.95417343e-01  3.00647398e-01  3.11830629e-01  3.29607957e-01
  3.33821337e-01  3.52676054e-01  3.57332261e-01  3.95064226e-01
  4.11423096e-01  4.41577611e-01  4.48197946e-01  4.55171545e-01
  4.73758380e-01  4.79682218e-01  4.91323829e-01  5.10140770e-01
  5.12489854e-01  5.17780692e-01  5.24904278e-01  5.39373017e-01
  5.50355527e-01  5.60706837e-01  5.75164735e-01  6.05154184e-01
  6.21147480e-01  6.32183034e-01  6.51915166e-01  6.68306616e-01
  6.72727185e-01  7.00414743e-01  7.06314035e-01  7.11910245e-01
  7.23369496e-01  7.33564806e-01  7.37931438e-01  7.61823979e-01
  7.66685047e-01  7.80625353e-01  7.86256588e-01  7.89421516e-01
  7.97326276e-01  8.01801051e-01  8.06282278e-01  8.12723900e-01
  8.23303382e-01  8.25907191e-01  8.37136114e-01  8.48697006e-01
  8.56947476e-01  8.64257711e-01  8.76368415e-01  8.79411122e-01
  8.94707980e-01  9.17821456e-01  9.21370507e-01  9.43222484e-01
  9.63063629e-01  9.76615024e-01  9.99539097e-01  1.01718889e+00
  1.03231506e+00  1.05189287e+00  1.05300593e+00  1.05983053e+00
  1.07939253e+00  1.09048999e+00  1.11435647e+00  1.15216380e+00
  1.20116859e+00  1.20493888e+00  1.22348168e+00  1.25157233e+00
  1.26039295e+00  1.26808926e+00  1.27639236e+00  1.29014570e+00
  1.30312188e+00  1.36491639e+00  1.40622372e+00  1.41945074e+00
  1.43889231e+00  1.45323671e+00  1.47458114e+00  1.48950466e+00
  1.53459336e+00  1.56464431e+00  1.57305448e+00  1.57745060e+00
  1.63890318e+00  1.69241186e+00  1.79269502e+00  1.82042707e+00
  1.84980237e+00  1.87955890e+00  1.93472727e+00  1.98227732e+00
  2.05769745e+00  2.06833235e+00  2.12749346e+00  2.20257915e+00
  2.25198890e+00  2.29166033e+00  2.31064289e+00  2.36374782e+00
  2.42607949e+00  2.45368719e+00  2.48286110e+00  2.49292739e+00
  2.57196165e+00  2.58881286e+00  2.64446664e+00  2.65128229e+00
  2.71191184e+00  2.76763281e+00  2.80448193e+00  2.81755570e+00
  2.83644870e+00  2.87276767e+00  2.90232146e+00  2.95341059e+00
  3.00365369e+00  3.03634699e+00  3.05707095e+00  3.10757116e+00
  3.11243745e+00  3.18338923e+00  3.19566721e+00  3.21153881e+00
  3.22732489e+00  3.28061983e+00  3.30425814e+00  3.30594384e+00
  3.32703856e+00  3.33041736e+00  3.36913577e+00  3.39675282e+00
  3.42616511e+00  3.45801960e+00  3.47002392e+00  3.52296650e+00
  3.52607756e+00  3.54082556e+00  3.60059217e+00  3.67020747e+00
  3.68691421e+00  3.69544508e+00  3.72192805e+00  3.76525898e+00
  3.78856297e+00  3.85394348e+00  3.86021773e+00  3.88574231e+00
  3.89377746e+00  3.95800884e+00  3.96054078e+00  4.02192423e+00
  4.04048666e+00  4.05366417e+00  4.05919143e+00  4.09058339e+00
  4.15251634e+00  4.24372493e+00  4.26605993e+00  4.28328627e+00
  4.29096313e+00  4.37542813e+00  4.38729720e+00  4.42692417e+00
  4.43585270e+00  4.48935146e+00  4.51370547e+00  4.51977710e+00
  4.64828750e+00  4.65748536e+00  4.67910477e+00  4.68992848e+00
  4.75991029e+00  4.81625974e+00  4.82865942e+00  4.94788748e+00
  5.00296110e+00  5.05143097e+00  5.07552486e+00  5.14020069e+00
  5.14618136e+00  5.31329791e+00  5.33832273e+00  5.39653317e+00
  5.43778512e+00  5.46689086e+00  5.48086731e+00  5.53128616e+00
  5.58898535e+00  5.60497076e+00  5.61507277e+00  5.68823023e+00
  5.74104460e+00  5.75178440e+00  5.84847733e+00  5.86860212e+00
  5.97795007e+00  5.99930340e+00  6.08435138e+00  6.11211107e+00
  6.12185025e+00  6.14637923e+00  6.19568963e+00  6.21169620e+00
  6.28114366e+00  6.38830974e+00  6.42961171e+00  6.44687490e+00
  6.46269853e+00  6.58633395e+00  6.62991910e+00  6.70999608e+00
  6.79394519e+00  6.83448346e+00  6.90423359e+00  6.96637510e+00
  6.99155357e+00  7.04077739e+00  7.09620292e+00  7.17845067e+00
  7.21901379e+00  7.28861694e+00  7.29698420e+00  7.34274730e+00
  7.36741634e+00  7.44122448e+00  7.49474321e+00  7.51972471e+00
  7.71154459e+00  7.75315823e+00  7.90028255e+00  7.95651138e+00
  8.06765515e+00  8.46264833e+00  1.07186504e+01  1.30075542e+01
  1.32558745e+01  1.39335115e+01  1.58321358e+01  1.70413096e+01]
E1 = -1079.3124699901207  E_coul = 423.73854381746685
cycle= 4 E= -355.501065569278  delta_E= -0.0015  |g|= 0.0332  |ddm|= 0.0882
    CPU time for cycle= 4      6.39 sec, wall time      0.20 sec
diis-norm(errvec)=0.0912223
diis-c [-0.00237136 -0.03434864 -0.03906618  0.32499087  0.74842395]
  HOMO = -0.129818654981791  LUMO = 0.0163286328213649
  mo_energy =
[-2.06492725e+01 -2.06451647e+01 -2.05886673e+01 -1.14579363e+01
 -1.13131771e+01 -1.13110111e+01 -2.44777479e+00 -2.42275548e+00
 -1.64197581e+00 -1.49394013e+00 -1.47380807e+00 -1.13411587e+00
 -9.88437029e-01 -9.01183272e-01 -8.35365085e-01 -8.12024274e-01
 -7.53196153e-01 -7.28527235e-01 -6.89618640e-01 -6.81883012e-01
 -6.14660052e-01 -5.88149803e-01 -5.48682708e-01 -5.33462868e-01
 -5.08093590e-01 -1.29818655e-01  1.63286328e-02  4.06330874e-02
  4.60232095e-02  5.47942856e-02  6.34424425e-02  6.49248220e-02
  8.03950522e-02  1.15804738e-01  1.30183762e-01  1.36204411e-01
  1.50918301e-01  1.54124444e-01  1.59240193e-01  1.69583395e-01
  1.70663688e-01  1.86027496e-01  1.93114635e-01  2.05202006e-01
  2.15964690e-01  2.18931034e-01  2.44354410e-01  2.48300956e-01
  2.50831142e-01  2.60784405e-01  2.71572143e-01  2.85156826e-01
  2.95110911e-01  3.00304610e-01  3.11347321e-01  3.29135521e-01
  3.33343421e-01  3.52408958e-01  3.57075057e-01  3.94109444e-01
  4.11198663e-01  4.41326136e-01  4.47831111e-01  4.54426392e-01
  4.72982228e-01  4.79357943e-01  4.90059011e-01  5.09836785e-01
  5.12058029e-01  5.17359210e-01  5.23921111e-01  5.38983216e-01
  5.49094558e-01  5.59592953e-01  5.74692853e-01  6.04314760e-01
  6.20279455e-01  6.31139443e-01  6.51396341e-01  6.66734729e-01
  6.72293063e-01  7.00181282e-01  7.06059632e-01  7.11619900e-01
  7.23123771e-01  7.32808906e-01  7.37474257e-01  7.61183900e-01
  7.66334132e-01  7.80628618e-01  7.86096522e-01  7.89242478e-01
  7.97386264e-01  8.01316400e-01  8.06190928e-01  8.11970336e-01
  8.23138551e-01  8.25309438e-01  8.36171454e-01  8.47886496e-01
  8.56511721e-01  8.63674467e-01  8.75552186e-01  8.78979426e-01
  8.93605877e-01  9.17089787e-01  9.21050255e-01  9.42982255e-01
  9.62594104e-01  9.75648700e-01  9.99097112e-01  1.01654467e+00
  1.03165210e+00  1.05102032e+00  1.05168221e+00  1.05881086e+00
  1.07817042e+00  1.08959162e+00  1.11338177e+00  1.14989588e+00
  1.19945380e+00  1.20348633e+00  1.22222544e+00  1.25058686e+00
  1.25891147e+00  1.26711151e+00  1.27530840e+00  1.28907680e+00
  1.30174413e+00  1.36345887e+00  1.40454380e+00  1.41868952e+00
  1.43780672e+00  1.45089364e+00  1.47381906e+00  1.48811047e+00
  1.53311126e+00  1.56380385e+00  1.57261593e+00  1.57404746e+00
  1.63811913e+00  1.69159664e+00  1.79142566e+00  1.81836742e+00
  1.84842002e+00  1.87739185e+00  1.93165426e+00  1.98190538e+00
  2.05723142e+00  2.06441520e+00  2.12680700e+00  2.20044970e+00
  2.25286115e+00  2.29027464e+00  2.30923239e+00  2.36121771e+00
  2.42447747e+00  2.45262839e+00  2.48141393e+00  2.49113496e+00
  2.57024037e+00  2.58702470e+00  2.64193924e+00  2.64930729e+00
  2.70984342e+00  2.76511634e+00  2.80221236e+00  2.81653613e+00
  2.83394360e+00  2.87047384e+00  2.90105525e+00  2.95115942e+00
  3.00114530e+00  3.03396998e+00  3.05538821e+00  3.10539429e+00
  3.11029261e+00  3.18152605e+00  3.19334819e+00  3.20982858e+00
  3.22504513e+00  3.27840162e+00  3.30256952e+00  3.30431826e+00
  3.32508830e+00  3.32768850e+00  3.36690238e+00  3.39474745e+00
  3.42374044e+00  3.45572074e+00  3.46793129e+00  3.52183427e+00
  3.52517124e+00  3.53952035e+00  3.59911022e+00  3.66829889e+00
  3.68507466e+00  3.69264102e+00  3.71794358e+00  3.76372276e+00
  3.78703651e+00  3.85238990e+00  3.85934331e+00  3.88350415e+00
  3.89281849e+00  3.95700305e+00  3.95936005e+00  4.02049807e+00
  4.03907641e+00  4.05179594e+00  4.05790106e+00  4.09010312e+00
  4.15086001e+00  4.24296499e+00  4.26442204e+00  4.28391017e+00
  4.29039123e+00  4.37370044e+00  4.38678326e+00  4.42521501e+00
  4.43436374e+00  4.48896875e+00  4.51271187e+00  4.51916159e+00
  4.64250471e+00  4.65419185e+00  4.67621249e+00  4.68479794e+00
  4.75301298e+00  4.81541737e+00  4.82902577e+00  4.94635021e+00
  5.00237468e+00  5.05106828e+00  5.07431037e+00  5.13925990e+00
  5.14326177e+00  5.31298320e+00  5.33806136e+00  5.39485701e+00
  5.43672276e+00  5.46383806e+00  5.47981591e+00  5.52998349e+00
  5.58061880e+00  5.60209620e+00  5.60668889e+00  5.68642771e+00
  5.74037701e+00  5.75047410e+00  5.84801377e+00  5.86705805e+00
  5.97861501e+00  5.99650146e+00  6.08411336e+00  6.10748891e+00
  6.12042749e+00  6.14637669e+00  6.19565896e+00  6.21060934e+00
  6.28066899e+00  6.38899278e+00  6.43043397e+00  6.44618012e+00
  6.46402905e+00  6.58604968e+00  6.63018536e+00  6.70670182e+00
  6.78849324e+00  6.83264799e+00  6.90247106e+00  6.95975649e+00
  6.98191120e+00  7.03531200e+00  7.09045000e+00  7.17830442e+00
  7.22069444e+00  7.29079159e+00  7.30073629e+00  7.34295312e+00
  7.36043889e+00  7.44455018e+00  7.49155950e+00  7.52360325e+00
  7.70721397e+00  7.75713005e+00  7.89657842e+00  7.95716711e+00
  8.07107794e+00  8.45808500e+00  1.07179470e+01  1.30036509e+01
  1.32607193e+01  1.39306867e+01  1.58279903e+01  1.70310228e+01]
E1 = -1079.3339832063978  E_coul = 423.75984967138726
cycle= 5 E= -355.501272931634  delta_E= -0.000207  |g|= 0.0063  |ddm|= 0.0213
    CPU time for cycle= 5      6.52 sec, wall time      0.22 sec
diis-norm(errvec)=0.0189779
diis-c [-2.11790001e-04  2.88391227e-03 -2.21148128e-03 -6.62971423e-02
  1.35985633e-02  1.05202615e+00]
  HOMO = -0.129535752571966  LUMO = 0.0164482423238035
  mo_energy =
[-2.06534276e+01 -2.06492263e+01 -2.05881871e+01 -1.14578443e+01
 -1.13135129e+01 -1.13112998e+01 -2.44770096e+00 -2.42248817e+00
 -1.64288786e+00 -1.49394704e+00 -1.47508199e+00 -1.13451650e+00
 -9.89245717e-01 -9.02113533e-01 -8.36050761e-01 -8.12369506e-01
 -7.53823967e-01 -7.28990598e-01 -6.89747421e-01 -6.82923130e-01
 -6.16070911e-01 -5.88981328e-01 -5.49052900e-01 -5.33678048e-01
 -5.09161721e-01 -1.29535753e-01  1.64482423e-02  4.07545367e-02
  4.60515548e-02  5.48223251e-02  6.34945146e-02  6.49629182e-02
  8.04542952e-02  1.15673488e-01  1.30197456e-01  1.36312504e-01
  1.51056840e-01  1.54096319e-01  1.59202431e-01  1.69564445e-01
  1.70759552e-01  1.86086495e-01  1.92893511e-01  2.05222262e-01
  2.15756193e-01  2.18760718e-01  2.44575527e-01  2.48438905e-01
  2.50948546e-01  2.60923871e-01  2.71661162e-01  2.85278718e-01
  2.95136145e-01  2.99915492e-01  3.11095513e-01  3.29085328e-01
  3.33092995e-01  3.52459500e-01  3.57105967e-01  3.93944920e-01
  4.11035089e-01  4.41380326e-01  4.47942612e-01  4.54126115e-01
  4.72955045e-01  4.79312932e-01  4.90157253e-01  5.09890080e-01
  5.12007431e-01  5.17463277e-01  5.23689683e-01  5.38744303e-01
  5.48898825e-01  5.59352102e-01  5.74661130e-01  6.04115627e-01
  6.19815001e-01  6.30754931e-01  6.50916915e-01  6.66450113e-01
  6.71922664e-01  7.00072919e-01  7.06259657e-01  7.11638282e-01
  7.23383882e-01  7.32562238e-01  7.37463275e-01  7.61205312e-01
  7.66091745e-01  7.80816609e-01  7.86300623e-01  7.89467322e-01
  7.97604295e-01  8.01321900e-01  8.06387384e-01  8.11902108e-01
  8.23267886e-01  8.25208691e-01  8.36120087e-01  8.47788480e-01
  8.56380955e-01  8.63685262e-01  8.75356924e-01  8.78978405e-01
  8.93568402e-01  9.17156576e-01  9.20960142e-01  9.42565458e-01
  9.62380631e-01  9.75800295e-01  9.99166278e-01  1.01612206e+00
  1.03154357e+00  1.05092756e+00  1.05174064e+00  1.05859639e+00
  1.07788041e+00  1.08952335e+00  1.11326194e+00  1.14977048e+00
  1.19914861e+00  1.20310485e+00  1.22181712e+00  1.25005894e+00
  1.25862280e+00  1.26670098e+00  1.27495125e+00  1.28863037e+00
  1.30136335e+00  1.36318730e+00  1.40409663e+00  1.41822054e+00
  1.43747685e+00  1.45087457e+00  1.47338774e+00  1.48770645e+00
  1.53278147e+00  1.56339499e+00  1.57213932e+00  1.57385892e+00
  1.63755070e+00  1.69107192e+00  1.79094316e+00  1.81797983e+00
  1.84789403e+00  1.87696018e+00  1.93131687e+00  1.98127681e+00
  2.05656883e+00  2.06426996e+00  2.12627000e+00  2.20003186e+00
  2.25210514e+00  2.28970586e+00  2.30867378e+00  2.36088461e+00
  2.42406410e+00  2.45203738e+00  2.48096966e+00  2.49068343e+00
  2.56980373e+00  2.58659073e+00  2.64159116e+00  2.64889638e+00
  2.70933306e+00  2.76473849e+00  2.80184408e+00  2.81598790e+00
  2.83358067e+00  2.87000011e+00  2.90087454e+00  2.95071577e+00
  3.00091179e+00  3.03337777e+00  3.05504984e+00  3.10495211e+00
  3.10982983e+00  3.18098529e+00  3.19266606e+00  3.20966552e+00
  3.22464096e+00  3.27772548e+00  3.30210001e+00  3.30377804e+00
  3.32455085e+00  3.32737279e+00  3.36639859e+00  3.39423125e+00
  3.42315268e+00  3.45527057e+00  3.46745951e+00  3.52112729e+00
  3.52450974e+00  3.53890691e+00  3.59847158e+00  3.66773712e+00
  3.68435136e+00  3.69226239e+00  3.71754830e+00  3.76298754e+00
  3.78647269e+00  3.85176074e+00  3.85882227e+00  3.88307432e+00
  3.89228997e+00  3.95631132e+00  3.95882934e+00  4.02006389e+00
  4.03852388e+00  4.05123357e+00  4.05738203e+00  4.08962018e+00
  4.15025741e+00  4.24239942e+00  4.26395142e+00  4.28304849e+00
  4.28986419e+00  4.37317649e+00  4.38612536e+00  4.42467820e+00
  4.43382830e+00  4.48823804e+00  4.51215523e+00  4.51871008e+00
  4.64228040e+00  4.65378156e+00  4.67567136e+00  4.68449958e+00
  4.75273602e+00  4.81449798e+00  4.82813795e+00  4.94560488e+00
  5.00159378e+00  5.05027721e+00  5.07349441e+00  5.13867421e+00
  5.14259671e+00  5.31214394e+00  5.33728970e+00  5.39427827e+00
  5.43604139e+00  5.46326122e+00  5.47903896e+00  5.52942357e+00
  5.58064996e+00  5.60159997e+00  5.60667950e+00  5.68576467e+00
  5.73959023e+00  5.74988105e+00  5.84720222e+00  5.86623963e+00
  5.97755047e+00  5.99592846e+00  6.08313902e+00  6.10706954e+00
  6.11982934e+00  6.14549490e+00  6.19456569e+00  6.20974977e+00
  6.27985960e+00  6.38777122e+00  6.42917354e+00  6.44528504e+00
  6.46279998e+00  6.58493598e+00  6.62900013e+00  6.70586302e+00
  6.78781444e+00  6.83160312e+00  6.90136038e+00  6.95942023e+00
  6.98179853e+00  7.03462963e+00  7.08988947e+00  7.17712499e+00
  7.21925729e+00  7.28931592e+00  7.29911781e+00  7.34182517e+00
  7.36003650e+00  7.44293436e+00  7.49083644e+00  7.52191393e+00
  7.70653468e+00  7.75542107e+00  7.89574444e+00  7.95582082e+00
  8.06943673e+00  8.45748096e+00  1.07168571e+01  1.30029139e+01
  1.32585091e+01  1.39298621e+01  1.58275880e+01  1.70309294e+01]
E1 = -1079.3462650370507  E_coul = 423.7721075985362
cycle= 6 E= -355.501296835138  delta_E= -2.39e-05  |g|= 0.0025  |ddm|= 0.0123
    CPU time for cycle= 6      6.40 sec, wall time      0.20 sec
diis-norm(errvec)=0.00741169
diis-c [-2.92153114e-05  3.77365373e-03  3.99835109e-03 -3.08359917e-02
 -8.69359037e-02  3.73068683e-02  1.07269302e+00]
  HOMO = -0.129498626066929  LUMO = 0.0164390881613122
  mo_energy =
[-2.06519648e+01 -2.06477342e+01 -2.05878757e+01 -1.14573326e+01
 -1.13130575e+01 -1.13108494e+01 -2.44808102e+00 -2.42228683e+00
 -1.64233229e+00 -1.49373522e+00 -1.47441717e+00 -1.13422185e+00
 -9.88866327e-01 -9.01616786e-01 -8.35722473e-01 -8.12215822e-01
 -7.53581424e-01 -7.28835669e-01 -6.89568768e-01 -6.82618924e-01
 -6.15490483e-01 -5.88707923e-01 -5.49088417e-01 -5.33389653e-01
 -5.08897742e-01 -1.29498626e-01  1.64390882e-02  4.07540176e-02
  4.60476696e-02  5.48265801e-02  6.35177103e-02  6.49717156e-02
  8.04329693e-02  1.15682602e-01  1.30176397e-01  1.36302585e-01
  1.51106110e-01  1.54094277e-01  1.59225320e-01  1.69592840e-01
  1.70777320e-01  1.86161498e-01  1.92908656e-01  2.05236338e-01
  2.15858422e-01  2.18864744e-01  2.44625974e-01  2.48416743e-01
  2.50909359e-01  2.60930097e-01  2.71727189e-01  2.85311690e-01
  2.95154664e-01  2.99996857e-01  3.11120161e-01  3.29041386e-01
  3.33135249e-01  3.52482520e-01  3.57109684e-01  3.94041969e-01
  4.11150980e-01  4.41376305e-01  4.47913207e-01  4.54189985e-01
  4.72850200e-01  4.79384422e-01  4.90046167e-01  5.09999342e-01
  5.12123010e-01  5.17546722e-01  5.23831924e-01  5.38844579e-01
  5.48898438e-01  5.59383325e-01  5.74677556e-01  6.04176466e-01
  6.20003822e-01  6.30811085e-01  6.51055167e-01  6.66654169e-01
  6.72017805e-01  7.00211009e-01  7.06319432e-01  7.11709381e-01
  7.23374613e-01  7.32689205e-01  7.37487100e-01  7.61187647e-01
  7.66239887e-01  7.80993877e-01  7.86440185e-01  7.89597554e-01
  7.97766398e-01  8.01263321e-01  8.06522160e-01  8.11825931e-01
  8.23388177e-01  8.25226206e-01  8.36188389e-01  8.47727746e-01
  8.56451242e-01  8.63736108e-01  8.75374111e-01  8.78962662e-01
  8.93600094e-01  9.17121407e-01  9.21097888e-01  9.42712730e-01
  9.62441870e-01  9.75828601e-01  9.99131180e-01  1.01616541e+00
  1.03159754e+00  1.05093475e+00  1.05176919e+00  1.05865601e+00
  1.07792354e+00  1.08956032e+00  1.11325305e+00  1.14979815e+00
  1.19921836e+00  1.20318052e+00  1.22193093e+00  1.25022160e+00
  1.25865401e+00  1.26675998e+00  1.27501446e+00  1.28876101e+00
  1.30149879e+00  1.36324157e+00  1.40427443e+00  1.41832101e+00
  1.43756212e+00  1.45082517e+00  1.47349386e+00  1.48782087e+00
  1.53286955e+00  1.56349647e+00  1.57224593e+00  1.57387141e+00
  1.63770257e+00  1.69128220e+00  1.79102075e+00  1.81813159e+00
  1.84805700e+00  1.87711331e+00  1.93143657e+00  1.98154668e+00
  2.05683048e+00  2.06431624e+00  2.12650333e+00  2.20022045e+00
  2.25246787e+00  2.28994137e+00  2.30892315e+00  2.36104895e+00
  2.42428863e+00  2.45228691e+00  2.48116407e+00  2.49091812e+00
  2.56997480e+00  2.58675370e+00  2.64171828e+00  2.64908571e+00
  2.70955403e+00  2.76486064e+00  2.80200890e+00  2.81627735e+00
  2.83379796e+00  2.87019522e+00  2.90099416e+00  2.95093928e+00
  3.00112982e+00  3.03359428e+00  3.05527784e+00  3.10514907e+00
  3.11003190e+00  3.18114924e+00  3.19289507e+00  3.20967888e+00
  3.22483115e+00  3.27792903e+00  3.30231877e+00  3.30394024e+00
  3.32477498e+00  3.32758900e+00  3.36666782e+00  3.39445479e+00
  3.42336738e+00  3.45544192e+00  3.46764884e+00  3.52141820e+00
  3.52469642e+00  3.53918132e+00  3.59870926e+00  3.66798232e+00
  3.68465108e+00  3.69241842e+00  3.71774222e+00  3.76327871e+00
  3.78671659e+00  3.85197233e+00  3.85889802e+00  3.88327479e+00
  3.89237502e+00  3.95654172e+00  3.95893715e+00  4.02017562e+00
  4.03865639e+00  4.05144937e+00  4.05750036e+00  4.08970844e+00
  4.15044796e+00  4.24253532e+00  4.26403740e+00  4.28330579e+00
  4.28996478e+00  4.37332707e+00  4.38629690e+00  4.42487598e+00
  4.43392719e+00  4.48842579e+00  4.51226735e+00  4.51875643e+00
  4.64240228e+00  4.65388888e+00  4.67591684e+00  4.68461224e+00
  4.75287546e+00  4.81483605e+00  4.82843257e+00  4.94588773e+00
  5.00181118e+00  5.05056244e+00  5.07378779e+00  5.13888081e+00
  5.14284858e+00  5.31250617e+00  5.33760536e+00  5.39441092e+00
  5.43621990e+00  5.46347817e+00  5.47930313e+00  5.52958486e+00
  5.58058328e+00  5.60175147e+00  5.60663032e+00  5.68594970e+00
  5.73989756e+00  5.75008793e+00  5.84749791e+00  5.86650732e+00
  5.97796620e+00  5.99612515e+00  6.08350722e+00  6.10728947e+00
  6.12006040e+00  6.14588813e+00  6.19506340e+00  6.21010044e+00
  6.28018618e+00  6.38827498e+00  6.42969667e+00  6.44561760e+00
  6.46331918e+00  6.58538366e+00  6.62950609e+00  6.70621374e+00
  6.78812580e+00  6.83205247e+00  6.90181803e+00  6.95959896e+00
  6.98190475e+00  7.03495943e+00  7.09023756e+00  7.17768049e+00
  7.21988678e+00  7.28992826e+00  7.29983838e+00  7.34233549e+00
  7.36019316e+00  7.44359896e+00  7.49121005e+00  7.52260000e+00
  7.70687500e+00  7.75609056e+00  7.89613543e+00  7.95637870e+00
  8.07009368e+00  8.45784725e+00  1.07174053e+01  1.30033265e+01
  1.32593842e+01  1.39303140e+01  1.58279411e+01  1.70312717e+01]
E1 = -1079.3348877620488  E_coul = 423.7607261752851
cycle= 7 E= -355.501300983387  delta_E= -4.15e-06  |g|= 0.000841  |ddm|= 0.00563
    CPU time for cycle= 7      6.38 sec, wall time      0.20 sec
diis-norm(errvec)=0.00251193
diis-c [-2.69766461e-06 -1.36949735e-04  3.00160548e-04  7.13117803e-03
 -1.36920371e-02 -1.31935775e-01  6.15301114e-02  1.07680331e+00]
  HOMO = -0.129497240062452  LUMO = 0.0164279536051878
  mo_energy =
[-2.06522474e+01 -2.06480237e+01 -2.05884022e+01 -1.14573459e+01
 -1.13131933e+01 -1.13109856e+01 -2.44821811e+00 -2.42219233e+00
 -1.64249781e+00 -1.49397323e+00 -1.47456261e+00 -1.13430940e+00
 -9.88945950e-01 -9.01734606e-01 -8.35827454e-01 -8.12396454e-01
 -7.53654144e-01 -7.29023263e-01 -6.89658036e-01 -6.82727479e-01
 -6.15620860e-01 -5.88787179e-01 -5.49384436e-01 -5.33543130e-01
 -5.08995074e-01 -1.29497240e-01  1.64279536e-02  4.07437251e-02
  4.60305309e-02  5.48195540e-02  6.35207958e-02  6.49679260e-02
  8.04129885e-02  1.15692679e-01  1.30144090e-01  1.36289465e-01
  1.51116202e-01  1.54084247e-01  1.59235280e-01  1.69604210e-01
  1.70770054e-01  1.86186169e-01  1.92886744e-01  2.05208326e-01
  2.15827484e-01  2.18810924e-01  2.44619850e-01  2.48393553e-01
  2.50881197e-01  2.60917063e-01  2.71731641e-01  2.85305310e-01
  2.95131132e-01  2.99997189e-01  3.11120136e-01  3.29006818e-01
  3.33132392e-01  3.52469527e-01  3.57087094e-01  3.94006527e-01
  4.11089543e-01  4.41341187e-01  4.47873828e-01  4.54118376e-01
  4.72771052e-01  4.79378969e-01  4.89957300e-01  5.10010512e-01
  5.12132750e-01  5.17566595e-01  5.23808921e-01  5.38828673e-01
  5.48847938e-01  5.59325229e-01  5.74645404e-01  6.04140216e-01
  6.19947227e-01  6.30815935e-01  6.51017987e-01  6.66582389e-01
  6.71987742e-01  7.00187313e-01  7.06307396e-01  7.11679819e-01
  7.23363706e-01  7.32639721e-01  7.37445683e-01  7.61141467e-01
  7.66228944e-01  7.81038021e-01  7.86475098e-01  7.89633921e-01
  7.97816791e-01  8.01214705e-01  8.06567866e-01  8.11753759e-01
  8.23422568e-01  8.25185549e-01  8.36136722e-01  8.47648353e-01
  8.56414383e-01  8.63706494e-01  8.75298736e-01  8.78916611e-01
  8.93531344e-01  9.17078310e-01  9.21074429e-01  9.42675297e-01
  9.62380180e-01  9.75802349e-01  9.99099977e-01  1.01617035e+00
  1.03156882e+00  1.05086696e+00  1.05173746e+00  1.05861481e+00
  1.07787145e+00  1.08949581e+00  1.11320007e+00  1.14972433e+00
  1.19914773e+00  1.20312962e+00  1.22189198e+00  1.25016994e+00
  1.25860874e+00  1.26674736e+00  1.27499848e+00  1.28871914e+00
  1.30144764e+00  1.36317267e+00  1.40419949e+00  1.41829329e+00
  1.43752859e+00  1.45072632e+00  1.47345520e+00  1.48774998e+00
  1.53281618e+00  1.56347350e+00  1.57220100e+00  1.57376913e+00
  1.63767047e+00  1.69120836e+00  1.79102907e+00  1.81803091e+00
  1.84800785e+00  1.87701685e+00  1.93131326e+00  1.98147772e+00
  2.05674977e+00  2.06414197e+00  2.12638963e+00  2.20009996e+00
  2.25237239e+00  2.28985046e+00  2.30882354e+00  2.36094992e+00
  2.42416937e+00  2.45218285e+00  2.48107620e+00  2.49080670e+00
  2.56987685e+00  2.58668245e+00  2.64162743e+00  2.64903058e+00
  2.70947971e+00  2.76479752e+00  2.80191181e+00  2.81617634e+00
  2.83371413e+00  2.87014973e+00  2.90096329e+00  2.95085772e+00
  3.00108609e+00  3.03355302e+00  3.05522727e+00  3.10509981e+00
  3.10998148e+00  3.18111468e+00  3.19284036e+00  3.20959243e+00
  3.22477431e+00  3.27788704e+00  3.30225606e+00  3.30390908e+00
  3.32472146e+00  3.32752313e+00  3.36659256e+00  3.39437433e+00
  3.42329995e+00  3.45539545e+00  3.46759803e+00  3.52133805e+00
  3.52465542e+00  3.53910684e+00  3.59865452e+00  3.66790821e+00
  3.68457272e+00  3.69233392e+00  3.71763791e+00  3.76321329e+00
  3.78664838e+00  3.85192762e+00  3.85890619e+00  3.88320316e+00
  3.89237674e+00  3.95649431e+00  3.95892729e+00  4.02014563e+00
  4.03863066e+00  4.05136057e+00  4.05748647e+00  4.08970954e+00
  4.15039259e+00  4.24250920e+00  4.26402812e+00  4.28326554e+00
  4.28996708e+00  4.37328612e+00  4.38627193e+00  4.42483043e+00
  4.43391317e+00  4.48840540e+00  4.51226485e+00  4.51876646e+00
  4.64223251e+00  4.65382613e+00  4.67584083e+00  4.68449172e+00
  4.75266182e+00  4.81473453e+00  4.82837462e+00  4.94582259e+00
  5.00177790e+00  5.05050798e+00  5.07368772e+00  5.13882509e+00
  5.14273317e+00  5.31242004e+00  5.33753229e+00  5.39437871e+00
  5.43619376e+00  5.46333505e+00  5.47921757e+00  5.52955298e+00
  5.58031819e+00  5.60168418e+00  5.60635614e+00  5.68588763e+00
  5.73981178e+00  5.75002873e+00  5.84743202e+00  5.86640921e+00
  5.97787683e+00  5.99601483e+00  6.08342539e+00  6.10709848e+00
  6.12001255e+00  6.14579694e+00  6.19489181e+00  6.20998447e+00
  6.28010637e+00  6.38813217e+00  6.42954355e+00  6.44553414e+00
  6.46320228e+00  6.58525303e+00  6.62936649e+00  6.70601797e+00
  6.78787563e+00  6.83184632e+00  6.90164292e+00  6.95933587e+00
  6.98160001e+00  7.03472766e+00  7.09001624e+00  7.17748494e+00
  7.21971389e+00  7.28974411e+00  7.29966039e+00  7.34210919e+00
  7.35992372e+00  7.44343004e+00  7.49098484e+00  7.52243647e+00
  7.70662495e+00  7.75592654e+00  7.89590207e+00  7.95617567e+00
  8.06992649e+00  8.45764682e+00  1.07172557e+01  1.30031573e+01
  1.32591960e+01  1.39301768e+01  1.58278394e+01  1.70310515e+01]
E1 = -1079.3381202075018  E_coul = 423.7639580327812
cycle= 8 E= -355.501301571344  delta_E= -5.88e-07  |g|= 0.000194  |ddm|= 0.00256
    CPU time for cycle= 8      6.46 sec, wall time      0.20 sec
diis-norm(errvec)=0.000610667
diis-c [-1.10258934e-07 -3.36890505e-04 -4.21036093e-04  2.63826337e-03
  8.10931774e-03  1.12058887e-02 -9.97187073e-02 -1.45912934e-01
  1.22443610e+00]
  HOMO = -0.129486847424788  LUMO = 0.0164325673133044
  mo_energy =
[-2.06521889e+01 -2.06479545e+01 -2.05884201e+01 -1.14573217e+01
 -1.13131870e+01 -1.13109736e+01 -2.44821012e+00 -2.42215264e+00
 -1.64246472e+00 -1.49397854e+00 -1.47452581e+00 -1.13428861e+00
 -9.88922119e-01 -9.01703934e-01 -8.35807471e-01 -8.12384725e-01
 -7.53642506e-01 -7.29011256e-01 -6.89647184e-01 -6.82709599e-01
 -6.15575248e-01 -5.88757602e-01 -5.49398091e-01 -5.33522646e-01
 -5.08976714e-01 -1.29486847e-01  1.64325673e-02  4.07483143e-02
  4.60318108e-02  5.48209001e-02  6.35243776e-02  6.49694537e-02
  8.04122164e-02  1.15698222e-01  1.30147263e-01  1.36295152e-01
  1.51126571e-01  1.54088791e-01  1.59242477e-01  1.69612646e-01
  1.70779018e-01  1.86197468e-01  1.92891803e-01  2.05213154e-01
  2.15836976e-01  2.18819301e-01  2.44631704e-01  2.48398531e-01
  2.50885403e-01  2.60922654e-01  2.71744813e-01  2.85313158e-01
  2.95137736e-01  3.00004637e-01  3.11129360e-01  3.29009210e-01
  3.33139208e-01  3.52477471e-01  3.57092322e-01  3.94020610e-01
  4.11099763e-01  4.41347702e-01  4.47885157e-01  4.54124288e-01
  4.72775051e-01  4.79395146e-01  4.89959881e-01  5.10030000e-01
  5.12150903e-01  5.17586871e-01  5.23824643e-01  5.38841360e-01
  5.48854931e-01  5.59332414e-01  5.74657594e-01  6.04150438e-01
  6.19963039e-01  6.30821725e-01  6.51031257e-01  6.66601889e-01
  6.71998900e-01  7.00208587e-01  7.06330866e-01  7.11699785e-01
  7.23385245e-01  7.32655089e-01  7.37457168e-01  7.61152299e-01
  7.66248690e-01  7.81065540e-01  7.86500810e-01  7.89659022e-01
  7.97842850e-01  8.01221194e-01  8.06592144e-01  8.11757699e-01
  8.23446491e-01  8.25195999e-01  8.36151882e-01  8.47652282e-01
  8.56428713e-01  8.63720477e-01  8.75306134e-01  8.78925896e-01
  8.93544062e-01  9.17088134e-01  9.21094530e-01  9.42692942e-01
  9.62391679e-01  9.75822179e-01  9.99111788e-01  1.01618061e+00
  1.03158287e+00  1.05087608e+00  1.05175370e+00  1.05862708e+00
  1.07788195e+00  1.08951276e+00  1.11321046e+00  1.14973149e+00
  1.19915628e+00  1.20313835e+00  1.22190443e+00  1.25018502e+00
  1.25861579e+00  1.26675605e+00  1.27500755e+00  1.28873187e+00
  1.30146230e+00  1.36318355e+00  1.40421481e+00  1.41830555e+00
  1.43753983e+00  1.45073332e+00  1.47346792e+00  1.48776331e+00
  1.53282828e+00  1.56348511e+00  1.57221085e+00  1.57377658e+00
  1.63768270e+00  1.69122590e+00  1.79103530e+00  1.81804485e+00
  1.84802062e+00  1.87702956e+00  1.93132341e+00  1.98149953e+00
  2.05677039e+00  2.06414672e+00  2.12640856e+00  2.20011472e+00
  2.25239854e+00  2.28986467e+00  2.30884009e+00  2.36096404e+00
  2.42418883e+00  2.45220093e+00  2.48109429e+00  2.49082534e+00
  2.56989338e+00  2.58669853e+00  2.64163942e+00  2.64904789e+00
  2.70949793e+00  2.76481001e+00  2.80192672e+00  2.81619844e+00
  2.83373479e+00  2.87016506e+00  2.90098311e+00  2.95087604e+00
  3.00110910e+00  3.03356590e+00  3.05524990e+00  3.10511765e+00
  3.10999918e+00  3.18113067e+00  3.19285387e+00  3.20960891e+00
  3.22479373e+00  3.27789989e+00  3.30227734e+00  3.30392534e+00
  3.32474094e+00  3.32754257e+00  3.36661568e+00  3.39439301e+00
  3.42331424e+00  3.45541031e+00  3.46761222e+00  3.52135832e+00
  3.52466970e+00  3.53912773e+00  3.59867318e+00  3.66792697e+00
  3.68459005e+00  3.69234998e+00  3.71765211e+00  3.76323305e+00
  3.78666724e+00  3.85194321e+00  3.85891759e+00  3.88322051e+00
  3.89238770e+00  3.95651140e+00  3.95893876e+00  4.02015953e+00
  4.03864187e+00  4.05137687e+00  4.05749917e+00  4.08972215e+00
  4.15040734e+00  4.24252199e+00  4.26403819e+00  4.28328408e+00
  4.28997819e+00  4.37329798e+00  4.38628593e+00  4.42484691e+00
  4.43392171e+00  4.48841900e+00  4.51227591e+00  4.51877649e+00
  4.64223319e+00  4.65383353e+00  4.67585680e+00  4.68449588e+00
  4.75266309e+00  4.81475432e+00  4.82839494e+00  4.94584081e+00
  5.00179287e+00  5.05052874e+00  5.07370683e+00  5.13884369e+00
  5.14274651e+00  5.31244242e+00  5.33755671e+00  5.39438915e+00
  5.43620616e+00  5.46334906e+00  5.47923473e+00  5.52956595e+00
  5.58030515e+00  5.60169450e+00  5.60634368e+00  5.68589993e+00
  5.73983337e+00  5.75004656e+00  5.84745252e+00  5.86642511e+00
  5.97790392e+00  5.99602710e+00  6.08344807e+00  6.10710993e+00
  6.12002999e+00  6.14582474e+00  6.19492179e+00  6.21000647e+00
  6.28013047e+00  6.38816469e+00  6.42957592e+00  6.44555587e+00
  6.46323551e+00  6.58527759e+00  6.62939585e+00  6.70603439e+00
  6.78788550e+00  6.83187058e+00  6.90166404e+00  6.95934376e+00
  6.98159703e+00  7.03473983e+00  7.09002906e+00  7.17751407e+00
  7.21974720e+00  7.28977679e+00  7.29970503e+00  7.34213454e+00
  7.35993295e+00  7.44346937e+00  7.49100891e+00  7.52247752e+00
  7.70664088e+00  7.75596418e+00  7.89592223e+00  7.95620710e+00
  8.06996329e+00  8.45766425e+00  1.07172823e+01  1.30031738e+01
  1.32592421e+01  1.39301960e+01  1.58278531e+01  1.70310591e+01]
E1 = -1079.3380012207585  E_coul = 423.76383900416874
cycle= 9 E= -355.501301613214  delta_E= -4.19e-08  |g|= 3.42e-05  |ddm|= 0.000896
    CPU time for cycle= 9      6.47 sec, wall time      0.20 sec
diis-norm(errvec)=0.00010736
diis-c [-7.07074273e-09  1.10974613e+00 -2.08014326e-05 -1.57181520e-04
  1.88403441e-04  2.74348568e-03  3.26065258e-03 -2.27391214e-02
 -9.30215663e-02]
  HOMO = -0.129485955325219  LUMO = 0.0164330862536678
  mo_energy =
[-2.06521815e+01 -2.06479583e+01 -2.05884276e+01 -1.14573186e+01
 -1.13131767e+01 -1.13109653e+01 -2.44821144e+00 -2.42214498e+00
 -1.64246241e+00 -1.49397786e+00 -1.47452293e+00 -1.13428425e+00
 -9.88917594e-01 -9.01699387e-01 -8.35804431e-01 -8.12383752e-01
 -7.53638895e-01 -7.29010501e-01 -6.89644364e-01 -6.82706381e-01
 -6.15568791e-01 -5.88751302e-01 -5.49399890e-01 -5.33519779e-01
 -5.08973389e-01 -1.29485955e-01  1.64330863e-02  4.07486246e-02
  4.60320741e-02  5.48208108e-02  6.35249972e-02  6.49696508e-02
  8.04116467e-02  1.15699928e-01  1.30147433e-01  1.36295771e-01
  1.51127945e-01  1.54089640e-01  1.59244493e-01  1.69614632e-01
  1.70780338e-01  1.86199660e-01  1.92893046e-01  2.05213272e-01
  2.15838358e-01  2.18819662e-01  2.44633169e-01  2.48398601e-01
  2.50885686e-01  2.60923051e-01  2.71747302e-01  2.85314240e-01
  2.95138563e-01  3.00007679e-01  3.11131978e-01  3.29009624e-01
  3.33141421e-01  3.52478596e-01  3.57092930e-01  3.94022252e-01
  4.11100476e-01  4.41348708e-01  4.47886443e-01  4.54125659e-01
  4.72774570e-01  4.79398333e-01  4.89958634e-01  5.10033647e-01
  5.12154480e-01  5.17590332e-01  5.23828054e-01  5.38844260e-01
  5.48856539e-01  5.59334063e-01  5.74659850e-01  6.04153099e-01
  6.19965389e-01  6.30824793e-01  6.51034059e-01  6.66605215e-01
  6.72001436e-01  7.00211673e-01  7.06334062e-01  7.11702301e-01
  7.23388154e-01  7.32657212e-01  7.37458622e-01  7.61153366e-01
  7.66251838e-01  7.81070197e-01  7.86504964e-01  7.89662913e-01
  7.97847316e-01  8.01221805e-01  8.06596221e-01  8.11757889e-01
  8.23450806e-01  8.25197621e-01  8.36153483e-01  8.47652141e-01
  8.56431245e-01  8.63722728e-01  8.75306931e-01  8.78926825e-01
  8.93545438e-01  9.17089161e-01  9.21098266e-01  9.42695789e-01
  9.62393538e-01  9.75825045e-01  9.99113154e-01  1.01618347e+00
  1.03158553e+00  1.05087756e+00  1.05175589e+00  1.05862977e+00
  1.07788384e+00  1.08951435e+00  1.11321187e+00  1.14973290e+00
  1.19915808e+00  1.20314054e+00  1.22190705e+00  1.25018800e+00
  1.25861788e+00  1.26675872e+00  1.27501023e+00  1.28873520e+00
  1.30146608e+00  1.36318540e+00  1.40421726e+00  1.41830860e+00
  1.43754264e+00  1.45073400e+00  1.47347099e+00  1.48776522e+00
  1.53283074e+00  1.56348813e+00  1.57221337e+00  1.57377737e+00
  1.63768582e+00  1.69122849e+00  1.79103893e+00  1.81804682e+00
  1.84802393e+00  1.87703165e+00  1.93132489e+00  1.98150252e+00
  2.05677359e+00  2.06414685e+00  2.12641084e+00  2.20011632e+00
  2.25240213e+00  2.28986787e+00  2.30884298e+00  2.36096577e+00
  2.42419072e+00  2.45220377e+00  2.48109717e+00  2.49082765e+00
  2.56989574e+00  2.58670104e+00  2.64164176e+00  2.64905093e+00
  2.70950136e+00  2.76481305e+00  2.80192891e+00  2.81620218e+00
  2.83373837e+00  2.87016885e+00  2.90098710e+00  2.95087903e+00
  3.00111317e+00  3.03357062e+00  3.05525402e+00  3.10512097e+00
  3.11000315e+00  3.18113396e+00  3.19285717e+00  3.20961071e+00
  3.22479712e+00  3.27790391e+00  3.30228046e+00  3.30392868e+00
  3.32474393e+00  3.32754591e+00  3.36661861e+00  3.39439611e+00
  3.42331767e+00  3.45541363e+00  3.46761621e+00  3.52136186e+00
  3.52467263e+00  3.53913153e+00  3.59867644e+00  3.66793008e+00
  3.68459286e+00  3.69235195e+00  3.71765405e+00  3.76323669e+00
  3.78667054e+00  3.85194643e+00  3.85892026e+00  3.88322311e+00
  3.89239035e+00  3.95651449e+00  3.95894156e+00  4.02016204e+00
  4.03864489e+00  4.05137905e+00  4.05750246e+00  4.08972517e+00
  4.15040950e+00  4.24252478e+00  4.26404102e+00  4.28328719e+00
  4.28998115e+00  4.37330091e+00  4.38628846e+00  4.42485032e+00
  4.43392416e+00  4.48842220e+00  4.51227905e+00  4.51877927e+00
  4.64223391e+00  4.65383605e+00  4.67585963e+00  4.68449711e+00
  4.75266260e+00  4.81475720e+00  4.82839785e+00  4.94584463e+00
  5.00179614e+00  5.05053251e+00  5.07370928e+00  5.13884667e+00
  5.14274854e+00  5.31244581e+00  5.33755987e+00  5.39439195e+00
  5.43620932e+00  5.46335006e+00  5.47923731e+00  5.52956920e+00
  5.58030290e+00  5.60169699e+00  5.60634126e+00  5.68590223e+00
  5.73983647e+00  5.75004974e+00  5.84745522e+00  5.86642740e+00
  5.97790757e+00  5.99602895e+00  6.08345104e+00  6.10711036e+00
  6.12003379e+00  6.14582822e+00  6.19492389e+00  6.21000906e+00
  6.28013330e+00  6.38816731e+00  6.42957867e+00  6.44555893e+00
  6.46323925e+00  6.58528096e+00  6.62939857e+00  6.70603573e+00
  6.78788508e+00  6.83187121e+00  6.90166635e+00  6.95934189e+00
  6.98159423e+00  7.03474062e+00  7.09002978e+00  7.17751586e+00
  7.21975053e+00  7.28978060e+00  7.29970698e+00  7.34213565e+00
  7.35993101e+00  7.44347309e+00  7.49100867e+00  7.52248131e+00
  7.70664066e+00  7.75596839e+00  7.89592246e+00  7.95620909e+00
  8.06996693e+00  8.45766558e+00  1.07172842e+01  1.30031765e+01
  1.32592440e+01  1.39301997e+01  1.58278599e+01  1.70310588e+01]
E1 = -1079.3380774495156  E_coul = 423.76391523150596
cycle= 10 E= -355.501301614633  delta_E= -1.42e-09  |g|= 1.05e-05  |ddm|= 0.000202
    CPU time for cycle= 10      6.46 sec, wall time      0.21 sec
diis-norm(errvec)=3.27213e-05
diis-c [-7.08673006e-10 -1.46621357e-01  1.17008782e+00  2.74417124e-06
 -5.70145262e-05 -7.07758786e-04  1.38108226e-03  8.20026854e-03
 -3.22857847e-02]
  HOMO = -0.129485341311288  LUMO = 0.0164333025092856
  mo_energy =
[-2.06521860e+01 -2.06479529e+01 -2.05884269e+01 -1.14573187e+01
 -1.13131779e+01 -1.13109658e+01 -2.44821127e+00 -2.42214196e+00
 -1.64246175e+00 -1.49397751e+00 -1.47452218e+00 -1.13428375e+00
 -9.88917074e-01 -9.01699008e-01 -8.35804005e-01 -8.12383288e-01
 -7.53638438e-01 -7.29010237e-01 -6.89643985e-01 -6.82705833e-01
 -6.15567878e-01 -5.88750564e-01 -5.49399729e-01 -5.33519040e-01
 -5.08972703e-01 -1.29485341e-01  1.64333025e-02  4.07488500e-02
  4.60321972e-02  5.48208819e-02  6.35252633e-02  6.49697386e-02
  8.04115335e-02  1.15700556e-01  1.30147712e-01  1.36296193e-01
  1.51128569e-01  1.54089973e-01  1.59245221e-01  1.69615492e-01
  1.70781070e-01  1.86200534e-01  1.92893361e-01  2.05213480e-01
  2.15838935e-01  2.18819990e-01  2.44634002e-01  2.48398856e-01
  2.50886093e-01  2.60923302e-01  2.71748446e-01  2.85314764e-01
  2.95138948e-01  3.00008335e-01  3.11132696e-01  3.29009911e-01
  3.33142049e-01  3.52479177e-01  3.57093282e-01  3.94022823e-01
  4.11100734e-01  4.41349164e-01  4.47887135e-01  4.54125739e-01
  4.72774601e-01  4.79399601e-01  4.89958644e-01  5.10035000e-01
  5.12155558e-01  5.17591715e-01  5.23828971e-01  5.38844985e-01
  5.48856970e-01  5.59334460e-01  5.74660680e-01  6.04153889e-01
  6.19966023e-01  6.30825406e-01  6.51034662e-01  6.66605635e-01
  6.72002013e-01  7.00212662e-01  7.06335570e-01  7.11703583e-01
  7.23389631e-01  7.32657767e-01  7.37459238e-01  7.61153950e-01
  7.66252854e-01  7.81071985e-01  7.86506660e-01  7.89664495e-01
  7.97849051e-01  8.01222279e-01  8.06597935e-01  8.11758079e-01
  8.23452544e-01  8.25198210e-01  8.36154297e-01  8.47652193e-01
  8.56432089e-01  8.63723636e-01  8.75307177e-01  8.78927398e-01
  8.93546061e-01  9.17089831e-01  9.21099607e-01  9.42696394e-01
  9.62394206e-01  9.75826398e-01  9.99113919e-01  1.01618422e+00
  1.03158638e+00  1.05087827e+00  1.05175698e+00  1.05863055e+00
  1.07788438e+00  1.08951530e+00  1.11321244e+00  1.14973344e+00
  1.19915862e+00  1.20314112e+00  1.22190773e+00  1.25018854e+00
  1.25861837e+00  1.26675946e+00  1.27501086e+00  1.28873576e+00
  1.30146658e+00  1.36318606e+00  1.40421783e+00  1.41830918e+00
  1.43754318e+00  1.45073429e+00  1.47347165e+00  1.48776587e+00
  1.53283137e+00  1.56348877e+00  1.57221399e+00  1.57377791e+00
  1.63768643e+00  1.69122916e+00  1.79103955e+00  1.81804741e+00
  1.84802452e+00  1.87703225e+00  1.93132548e+00  1.98150312e+00
  2.05677414e+00  2.06414738e+00  2.12641142e+00  2.20011694e+00
  2.25240274e+00  2.28986805e+00  2.30884383e+00  2.36096625e+00
  2.42419135e+00  2.45220427e+00  2.48109766e+00  2.49082820e+00
  2.56989630e+00  2.58670160e+00  2.64164217e+00  2.64905150e+00
  2.70950177e+00  2.76481358e+00  2.80192942e+00  2.81620258e+00
  2.83373872e+00  2.87016932e+00  2.90098815e+00  2.95087949e+00
  3.00111406e+00  3.03357088e+00  3.05525484e+00  3.10512146e+00
  3.11000347e+00  3.18113444e+00  3.19285756e+00  3.20961120e+00
  3.22479761e+00  3.27790423e+00  3.30228092e+00  3.30392916e+00
  3.32474448e+00  3.32754639e+00  3.36661911e+00  3.39439658e+00
  3.42331801e+00  3.45541413e+00  3.46761654e+00  3.52136237e+00
  3.52467323e+00  3.53913199e+00  3.59867694e+00  3.66793062e+00
  3.68459328e+00  3.69235257e+00  3.71765468e+00  3.76323714e+00
  3.78667103e+00  3.85194696e+00  3.85892101e+00  3.88322369e+00
  3.89239107e+00  3.95651502e+00  3.95894227e+00  4.02016265e+00
  4.03864553e+00  4.05137966e+00  4.05750312e+00  4.08972587e+00
  4.15041016e+00  4.24252543e+00  4.26404166e+00  4.28328784e+00
  4.28998183e+00  4.37330151e+00  4.38628919e+00  4.42485087e+00
  4.43392483e+00  4.48842284e+00  4.51227968e+00  4.51878008e+00
  4.64223433e+00  4.65383659e+00  4.67586009e+00  4.68449769e+00
  4.75266317e+00  4.81475764e+00  4.82839861e+00  4.94584507e+00
  5.00179669e+00  5.05053299e+00  5.07370983e+00  5.13884726e+00
  5.14274902e+00  5.31244628e+00  5.33756049e+00  5.39439244e+00
  5.43620982e+00  5.46335051e+00  5.47923800e+00  5.52956970e+00
  5.58030322e+00  5.60169744e+00  5.60634159e+00  5.68590277e+00
  5.73983696e+00  5.75005021e+00  5.84745578e+00  5.86642787e+00
  5.97790810e+00  5.99602940e+00  6.08345156e+00  6.10711088e+00
  6.12003416e+00  6.14582874e+00  6.19492447e+00  6.21000953e+00
  6.28013388e+00  6.38816796e+00  6.42957935e+00  6.44555931e+00
  6.46323965e+00  6.58528133e+00  6.62939909e+00  6.70603621e+00
  6.78788560e+00  6.83187180e+00  6.90166675e+00  6.95934250e+00
  6.98159473e+00  7.03474108e+00  7.09003026e+00  7.17751623e+00
  7.21975089e+00  7.28977990e+00  7.29970864e+00  7.34213630e+00
  7.35993160e+00  7.44347345e+00  7.49100933e+00  7.52248191e+00
  7.70664117e+00  7.75596874e+00  7.89592306e+00  7.95620955e+00
  8.06996736e+00  8.45766608e+00  1.07172846e+01  1.30031767e+01
  1.32592448e+01  1.39301999e+01  1.58278596e+01  1.70310592e+01]
E1 = -1079.3380943855839  E_coul = 423.7639321674231
cycle= 11 E= -355.501301614785  delta_E= -1.51e-10  |g|= 4.6e-06  |ddm|= 7.57e-05
    CPU time for cycle= 11      6.45 sec, wall time      0.20 sec
  HOMO = -0.129485280745097  LUMO = 0.0164333620753142
  mo_energy =
[-2.06521817e+01 -2.06479567e+01 -2.05884269e+01 -1.14573184e+01
 -1.13131766e+01 -1.13109648e+01 -2.44821142e+00 -2.42214151e+00
 -1.64246136e+00 -1.49397726e+00 -1.47452186e+00 -1.13428323e+00
 -9.88916734e-01 -9.01698673e-01 -8.35803624e-01 -8.12383070e-01
 -7.53638095e-01 -7.29010074e-01 -6.89643705e-01 -6.82705435e-01
 -6.15567487e-01 -5.88750140e-01 -5.49399642e-01 -5.33518776e-01
 -5.08972418e-01 -1.29485281e-01  1.64333621e-02  4.07488761e-02
  4.60322169e-02  5.48208496e-02  6.35253088e-02  6.49697591e-02
  8.04115029e-02  1.15700698e-01  1.30147777e-01  1.36296244e-01
  1.51128669e-01  1.54090056e-01  1.59245360e-01  1.69615618e-01
  1.70781190e-01  1.86200687e-01  1.92893488e-01  2.05213529e-01
  2.15839099e-01  2.18820104e-01  2.44634128e-01  2.48398884e-01
  2.50886144e-01  2.60923343e-01  2.71748620e-01  2.85314857e-01
  2.95139025e-01  3.00008545e-01  3.11132871e-01  3.29009937e-01
  3.33142217e-01  3.52479279e-01  3.57093326e-01  3.94023065e-01
  4.11100843e-01  4.41349243e-01  4.47887210e-01  4.54125974e-01
  4.72774594e-01  4.79399786e-01  4.89958588e-01  5.10035241e-01
  5.12155884e-01  5.17591979e-01  5.23829287e-01  5.38845274e-01
  5.48857149e-01  5.59334642e-01  5.74660883e-01  6.04154104e-01
  6.19966331e-01  6.30825676e-01  6.51034909e-01  6.66606070e-01
  6.72002199e-01  7.00213006e-01  7.06335811e-01  7.11703764e-01
  7.23389856e-01  7.32657965e-01  7.37459340e-01  7.61154076e-01
  7.66253093e-01  7.81072313e-01  7.86506941e-01  7.89664725e-01
  7.97849372e-01  8.01222331e-01  8.06598225e-01  8.11758129e-01
  8.23452830e-01  8.25198374e-01  8.36154364e-01  8.47652218e-01
  8.56432264e-01  8.63723877e-01  8.75307312e-01  8.78927416e-01
  8.93546185e-01  9.17089895e-01  9.21099823e-01  9.42696675e-01
  9.62394277e-01  9.75826628e-01  9.99113964e-01  1.01618444e+00
  1.03158663e+00  1.05087844e+00  1.05175721e+00  1.05863079e+00
  1.07788458e+00  1.08951544e+00  1.11321256e+00  1.14973365e+00
  1.19915880e+00  1.20314137e+00  1.22190798e+00  1.25018883e+00
  1.25861863e+00  1.26675963e+00  1.27501110e+00  1.28873606e+00
  1.30146692e+00  1.36318628e+00  1.40421811e+00  1.41830947e+00
  1.43754347e+00  1.45073435e+00  1.47347189e+00  1.48776610e+00
  1.53283164e+00  1.56348907e+00  1.57221415e+00  1.57377811e+00
  1.63768670e+00  1.69122943e+00  1.79103986e+00  1.81804763e+00
  1.84802484e+00  1.87703252e+00  1.93132573e+00  1.98150345e+00
  2.05677446e+00  2.06414752e+00  2.12641172e+00  2.20011710e+00
  2.25240305e+00  2.28986849e+00  2.30884385e+00  2.36096651e+00
  2.42419160e+00  2.45220458e+00  2.48109801e+00  2.49082844e+00
  2.56989657e+00  2.58670191e+00  2.64164251e+00  2.64905181e+00
  2.70950221e+00  2.76481391e+00  2.80192968e+00  2.81620301e+00
  2.83373922e+00  2.87016977e+00  2.90098850e+00  2.95087983e+00
  3.00111453e+00  3.03357139e+00  3.05525527e+00  3.10512180e+00
  3.11000400e+00  3.18113483e+00  3.19285794e+00  3.20961144e+00
  3.22479806e+00  3.27790467e+00  3.30228132e+00  3.30392957e+00
  3.32474488e+00  3.32754678e+00  3.36661954e+00  3.39439698e+00
  3.42331842e+00  3.45541448e+00  3.46761699e+00  3.52136275e+00
  3.52467351e+00  3.53913241e+00  3.59867730e+00  3.66793097e+00
  3.68459359e+00  3.69235289e+00  3.71765496e+00  3.76323756e+00
  3.78667137e+00  3.85194729e+00  3.85892126e+00  3.88322401e+00
  3.89239135e+00  3.95651538e+00  3.95894252e+00  4.02016293e+00
  4.03864583e+00  4.05137986e+00  4.05750347e+00  4.08972616e+00
  4.15041045e+00  4.24252571e+00  4.26404196e+00  4.28328813e+00
  4.28998211e+00  4.37330180e+00  4.38628944e+00  4.42485126e+00
  4.43392509e+00  4.48842315e+00  4.51228002e+00  4.51878032e+00
  4.64223457e+00  4.65383688e+00  4.67586048e+00  4.68449789e+00
  4.75266331e+00  4.81475802e+00  4.82839880e+00  4.94584552e+00
  5.00179701e+00  5.05053337e+00  5.07371012e+00  5.13884760e+00
  5.14274930e+00  5.31244663e+00  5.33756086e+00  5.39439279e+00
  5.43621018e+00  5.46335083e+00  5.47923817e+00  5.52957006e+00
  5.58030329e+00  5.60169779e+00  5.60634164e+00  5.68590305e+00
  5.73983729e+00  5.75005060e+00  5.84745610e+00  5.86642814e+00
  5.97790842e+00  5.99602971e+00  6.08345189e+00  6.10711108e+00
  6.12003460e+00  6.14582914e+00  6.19492476e+00  6.21000984e+00
  6.28013421e+00  6.38816826e+00  6.42957957e+00  6.44555972e+00
  6.46324003e+00  6.58528161e+00  6.62939936e+00  6.70603645e+00
  6.78788575e+00  6.83187208e+00  6.90166701e+00  6.95934262e+00
  6.98159480e+00  7.03474128e+00  7.09003042e+00  7.17751650e+00
  7.21975118e+00  7.28978110e+00  7.29970799e+00  7.34213633e+00
  7.35993170e+00  7.44347377e+00  7.49100953e+00  7.52248204e+00
  7.70664131e+00  7.75596903e+00  7.89592319e+00  7.95620980e+00
  8.06996759e+00  8.45766627e+00  1.07172848e+01  1.30031772e+01
  1.32592450e+01  1.39302004e+01  1.58278604e+01  1.70310594e+01]
E1 = -1079.3380923519221  E_coul = 423.76393013374616
Extra cycle  E= -355.5013016148  delta_E= -1.51e-11  |g|= 2.92e-06  |ddm|= 1.82e-05
    CPU time for scf_cycle    121.09 sec, wall time      3.96 sec
    CPU time for SCF    121.09 sec, wall time      3.96 sec
converged SCF energy = -355.5013016148
