#INFO: **** input file is /burg/ccce/users/eav2136/projects/batteries/01_mp2/hf_script.py ****
#!/usr/bin/env python3
from pyscf import gto, scf, mp
import sys
from fileutils import dump
import h5py

mol = gto.Mole()
mol.verbose = 10
mol.atom = f"geom_{sys.argv[1]}.xyz"
mol.basis = "ccpvtz"
mol.unit = "ANG"
mol.build()

mf = scf.RHF(mol)
# determine the output of mf.kernel()
mf.kernel()

conv = mf.converged
e_tot = mf.e_tot
mo_energy = mf.mo_energy
mo_coeff = mf.mo_coeff

dataout = {}
dataout["e_tot"] = e_tot
dataout["conv"] = conv
dump(dataout, f"data/hf_geom_{sys.argv[1]}.json")

with h5py.File(f"data/hf_geom_{sys.argv[1]}.h5", "w") as f:
    f.create_dataset("mo_energy", data=mo_energy)
    f.create_dataset("mo_coeff", data=mo_coeff)#INFO: ******************** input file end ********************


System: uname_result(system='Linux', node='g103', release='4.18.0-193.el8.x86_64', version='#1 SMP Fri Mar 27 14:35:58 UTC 2020', machine='x86_64')  Threads 32
Python 3.10.12 (main, Jul 29 2023, 11:27:27) [GCC 13.2.0]
numpy 1.25.1  scipy 1.10.1
Date: Fri Jan 19 11:48:42 2024
PySCF version 2.0.1
PySCF path  /burg/berkelbach/users/eav2136/builds/pyscf/projected-cvs/pyscf
GIT ORIG_HEAD 0bfbc692adf3ea63b8a509210433219cd1c472a2
GIT HEAD (branch projected-cvs) e14caaa2dddc538b9be2d86f01e5b456fc92da36

[ENV] PYSCF_TMPDIR /burg/ccce/users/eav2136/projects/batteries/01_mp2/tmp
[ENV] PYSCF_MAX_MEMORY 700000
[CONFIG] DEBUG = False
[CONFIG] MAX_MEMORY = 700000
[CONFIG] TMPDIR = /burg/ccce/users/eav2136/projects/batteries/01_mp2/tmp
[CONFIG] UNIT = angstrom
[CONFIG] VERBOSE = 3
[CONFIG] conf_file = None
[INPUT] verbose = 10
[INPUT] max_memory = 700000 
[INPUT] num. atoms = 36
[INPUT] num. electrons = 124
[INPUT] charge = 0
[INPUT] spin (= nelec alpha-beta = 2S) = 0
[INPUT] symmetry False subgroup None
[INPUT] Mole.unit = ANG
[INPUT]  1 C      4.889700000000   4.599650000000  10.258310000000 AA    9.240193831286   8.692078768856  19.385396400887 Bohr
[INPUT]  2 O      4.870170000000   4.245790000000   8.952570000000 AA    9.203287480073   8.023380282417  16.917905410997 Bohr
[INPUT]  3 C      5.310840000000   5.193710000000   8.233300000000 AA   10.036033091385   9.814689470415  15.558682101382 Bohr
[INPUT]  4 O      5.765780000000   6.111200000000   8.982240000000 AA   10.895745094495  11.548494292442  16.973973585113 Bohr
[INPUT]  5 C      5.774150000000   5.702340000000  10.272330000000 AA   10.911562102157  10.775860869152  19.411890361153 Bohr
[INPUT]  6 O      5.299720000000   5.216150000000   7.112960000000 AA   10.015019336880   9.857094924650  13.441546334986 Bohr
[INPUT]  7 H      5.212360000000   3.798320000000  10.814180000000 AA    9.849932862638   7.177784533458  20.435838461749 Bohr
[INPUT]  8 H      3.953110000000   4.871240000000  10.548100000000 AA    7.470295240279   9.205309487026  19.933020134525 Bohr
[INPUT]  9 H      5.464720000000   6.479910000000  10.867980000000 AA   10.326824147433  12.245255211830  20.537505727251 Bohr
[INPUT] 10 H      6.716790000000   5.418990000000  10.529430000000 AA   12.692893536217  10.240406971757  19.897738947779 Bohr
[INPUT] 11 Li     5.263950000000   5.263950000000   5.263950000000 AA    9.947423833404   9.947423833404   9.947423833404 Bohr
[INPUT] 12 Li     5.263950000000   1.754650000000   5.263950000000 AA    9.947423833404   3.315807944468   9.947423833404 Bohr
[INPUT] 13 Li     8.773250000000   5.263950000000   5.263950000000 AA   16.579039722340   9.947423833404   9.947423833404 Bohr
[INPUT] 14 Li     1.754650000000   5.263950000000   5.263950000000 AA    3.315807944468   9.947423833404   9.947423833404 Bohr
[INPUT] 15 Li     5.263950000000   8.773250000000   5.263950000000 AA    9.947423833404  16.579039722340   9.947423833404 Bohr
[INPUT] 16 Li     7.018600000000   3.509300000000   3.509300000000 AA   13.263231777872   6.631615888936   6.631615888936 Bohr
[INPUT] 17 Li     3.509300000000   3.509300000000   3.509300000000 AA    6.631615888936   6.631615888936   6.631615888936 Bohr
[INPUT] 18 Li     7.018600000000   7.018600000000   3.509300000000 AA   13.263231777872  13.263231777872   6.631615888936 Bohr
[INPUT] 19 Li     3.509300000000   7.018600000000   3.509300000000 AA    6.631615888936  13.263231777872   6.631615888936 Bohr
[INPUT] 20 Li     8.773250000000   1.754650000000   5.263950000000 AA   16.579039722340   3.315807944468   9.947423833404 Bohr
[INPUT] 21 Li     1.754650000000   1.754650000000   5.263950000000 AA    3.315807944468   3.315807944468   9.947423833404 Bohr
[INPUT] 22 Li     8.773250000000   8.773250000000   5.263950000000 AA   16.579039722340  16.579039722340   9.947423833404 Bohr
[INPUT] 23 Li     1.754650000000   8.773250000000   5.263950000000 AA    3.315807944468  16.579039722340   9.947423833404 Bohr
[INPUT] 24 Li     5.263950000000   5.263950000000   1.754650000000 AA    9.947423833404   9.947423833404   3.315807944468 Bohr
[INPUT] 25 Li     5.263950000000   1.754650000000   1.754650000000 AA    9.947423833404   3.315807944468   3.315807944468 Bohr
[INPUT] 26 Li     8.773250000000   5.263950000000   1.754650000000 AA   16.579039722340   9.947423833404   3.315807944468 Bohr
[INPUT] 27 Li     1.754650000000   5.263950000000   1.754650000000 AA    3.315807944468   9.947423833404   3.315807944468 Bohr
[INPUT] 28 Li     5.263950000000   8.773250000000   1.754650000000 AA    9.947423833404  16.579039722340   3.315807944468 Bohr
[INPUT] 29 Li     7.018600000000   0.000000000000   3.509300000000 AA   13.263231777872   0.000000000000   6.631615888936 Bohr
[INPUT] 30 Li     3.509300000000   0.000000000000   3.509300000000 AA    6.631615888936   0.000000000000   6.631615888936 Bohr
[INPUT] 31 Li     0.000000000000   3.509300000000   3.509300000000 AA    0.000000000000   6.631615888936   6.631615888936 Bohr
[INPUT] 32 Li     0.000000000000   7.018600000000   3.509300000000 AA    0.000000000000  13.263231777872   6.631615888936 Bohr
[INPUT] 33 Li     8.773250000000   1.754650000000   1.754650000000 AA   16.579039722340   3.315807944468   3.315807944468 Bohr
[INPUT] 34 Li     1.754650000000   1.754650000000   1.754650000000 AA    3.315807944468   3.315807944468   3.315807944468 Bohr
[INPUT] 35 Li     8.773250000000   8.773250000000   1.754650000000 AA   16.579039722340  16.579039722340   3.315807944468 Bohr
[INPUT] 36 Li     1.754650000000   8.773250000000   1.754650000000 AA    3.315807944468  16.579039722340   3.315807944468 Bohr
[INPUT] ---------------- BASIS SET ---------------- 
[INPUT] l, kappa, [nprim/nctr], expnt,             c_1 c_2 ...
[INPUT] Li
[INPUT] 0    0    [9    /2   ]  5988              0.000133 -2.1e-05
                                898.9             0.001025 -0.000161
                                205.9             0.005272 -0.00082
                                59.24             0.020929 -0.003326
                                19.87             0.06634 -0.010519
                                7.406             0.165775 -0.028097
                                2.93              0.315038 -0.055936
                                1.189             0.393523 -0.099237
                                0.4798            0.19087 -0.112189
[INPUT] 0    0    [1    /1   ]  0.07509              1
[INPUT] 0    0    [1    /1   ]  0.02832              1
[INPUT] 1    0    [3    /1   ]  3.266             0.00863
                                0.6511            0.047538
                                0.1696            0.209772
[INPUT] 1    0    [1    /1   ]  0.05578              1
[INPUT] 1    0    [1    /1   ]  0.0205               1
[INPUT] 2    0    [1    /1   ]  0.1874               1
[INPUT] 2    0    [1    /1   ]  0.0801               1
[INPUT] 3    0    [1    /1   ]  0.1829               1
[INPUT] H
[INPUT] 0    0    [3    /1   ]  33.87             0.006068
                                5.095             0.045308
                                1.159             0.202822
[INPUT] 0    0    [1    /1   ]  0.3258               1
[INPUT] 0    0    [1    /1   ]  0.1027               1
[INPUT] 1    0    [1    /1   ]  1.407                1
[INPUT] 1    0    [1    /1   ]  0.388                1
[INPUT] 2    0    [1    /1   ]  1.057                1
[INPUT] C
[INPUT] 0    0    [8    /2   ]  8236              0.000531 -0.000113
                                1235              0.004108 -0.000878
                                280.8             0.021087 -0.00454
                                79.27             0.081853 -0.018133
                                25.59             0.234817 -0.05576
                                8.997             0.434401 -0.126895
                                3.319             0.346129 -0.170352
                                0.3643            -0.008983 0.598684
[INPUT] 0    0    [1    /1   ]  0.9059               1
[INPUT] 0    0    [1    /1   ]  0.1285               1
[INPUT] 1    0    [3    /1   ]  18.71             0.014031
                                4.133             0.086866
                                1.2               0.290216
[INPUT] 1    0    [1    /1   ]  0.3827               1
[INPUT] 1    0    [1    /1   ]  0.1209               1
[INPUT] 2    0    [1    /1   ]  1.097                1
[INPUT] 2    0    [1    /1   ]  0.318                1
[INPUT] 3    0    [1    /1   ]  0.761                1
[INPUT] O
[INPUT] 0    0    [8    /2   ]  15330             0.000508 -0.000115
                                2299              0.003929 -0.000895
                                522.4             0.020243 -0.004636
                                147.3             0.079181 -0.018724
                                47.55             0.230687 -0.058463
                                16.76             0.433118 -0.136463
                                6.207             0.35026 -0.17574
                                0.6882            -0.008154 0.603418
[INPUT] 0    0    [1    /1   ]  1.752                1
[INPUT] 0    0    [1    /1   ]  0.2384               1
[INPUT] 1    0    [3    /1   ]  34.46             0.015928
                                7.749             0.09974
                                2.28              0.310492
[INPUT] 1    0    [1    /1   ]  0.7156               1
[INPUT] 1    0    [1    /1   ]  0.214                1
[INPUT] 2    0    [1    /1   ]  2.314                1
[INPUT] 2    0    [1    /1   ]  0.645                1
[INPUT] 3    0    [1    /1   ]  1.428                1

nuclear repulsion = 858.855893990579
number of shells = 312
number of NR pGTOs = 1434
number of NR cGTOs = 1016
basis = ccpvtz
ecp = {}
bas 0, expnt(s) = [8.236e+03 1.235e+03 2.808e+02 7.927e+01 2.559e+01 8.997e+00 3.319e+00
 3.643e-01]
bas 1, expnt(s) = [0.9059]
bas 2, expnt(s) = [0.1285]
bas 3, expnt(s) = [18.71   4.133  1.2  ]
bas 4, expnt(s) = [0.3827]
bas 5, expnt(s) = [0.1209]
bas 6, expnt(s) = [1.097]
bas 7, expnt(s) = [0.318]
bas 8, expnt(s) = [0.761]
bas 9, expnt(s) = [1.533e+04 2.299e+03 5.224e+02 1.473e+02 4.755e+01 1.676e+01 6.207e+00
 6.882e-01]
bas 10, expnt(s) = [1.752]
bas 11, expnt(s) = [0.2384]
bas 12, expnt(s) = [34.46   7.749  2.28 ]
bas 13, expnt(s) = [0.7156]
bas 14, expnt(s) = [0.214]
bas 15, expnt(s) = [2.314]
bas 16, expnt(s) = [0.645]
bas 17, expnt(s) = [1.428]
bas 18, expnt(s) = [8.236e+03 1.235e+03 2.808e+02 7.927e+01 2.559e+01 8.997e+00 3.319e+00
 3.643e-01]
bas 19, expnt(s) = [0.9059]
bas 20, expnt(s) = [0.1285]
bas 21, expnt(s) = [18.71   4.133  1.2  ]
bas 22, expnt(s) = [0.3827]
bas 23, expnt(s) = [0.1209]
bas 24, expnt(s) = [1.097]
bas 25, expnt(s) = [0.318]
bas 26, expnt(s) = [0.761]
bas 27, expnt(s) = [1.533e+04 2.299e+03 5.224e+02 1.473e+02 4.755e+01 1.676e+01 6.207e+00
 6.882e-01]
bas 28, expnt(s) = [1.752]
bas 29, expnt(s) = [0.2384]
bas 30, expnt(s) = [34.46   7.749  2.28 ]
bas 31, expnt(s) = [0.7156]
bas 32, expnt(s) = [0.214]
bas 33, expnt(s) = [2.314]
bas 34, expnt(s) = [0.645]
bas 35, expnt(s) = [1.428]
bas 36, expnt(s) = [8.236e+03 1.235e+03 2.808e+02 7.927e+01 2.559e+01 8.997e+00 3.319e+00
 3.643e-01]
bas 37, expnt(s) = [0.9059]
bas 38, expnt(s) = [0.1285]
bas 39, expnt(s) = [18.71   4.133  1.2  ]
bas 40, expnt(s) = [0.3827]
bas 41, expnt(s) = [0.1209]
bas 42, expnt(s) = [1.097]
bas 43, expnt(s) = [0.318]
bas 44, expnt(s) = [0.761]
bas 45, expnt(s) = [1.533e+04 2.299e+03 5.224e+02 1.473e+02 4.755e+01 1.676e+01 6.207e+00
 6.882e-01]
bas 46, expnt(s) = [1.752]
bas 47, expnt(s) = [0.2384]
bas 48, expnt(s) = [34.46   7.749  2.28 ]
bas 49, expnt(s) = [0.7156]
bas 50, expnt(s) = [0.214]
bas 51, expnt(s) = [2.314]
bas 52, expnt(s) = [0.645]
bas 53, expnt(s) = [1.428]
bas 54, expnt(s) = [33.87   5.095  1.159]
bas 55, expnt(s) = [0.3258]
bas 56, expnt(s) = [0.1027]
bas 57, expnt(s) = [1.407]
bas 58, expnt(s) = [0.388]
bas 59, expnt(s) = [1.057]
bas 60, expnt(s) = [33.87   5.095  1.159]
bas 61, expnt(s) = [0.3258]
bas 62, expnt(s) = [0.1027]
bas 63, expnt(s) = [1.407]
bas 64, expnt(s) = [0.388]
bas 65, expnt(s) = [1.057]
bas 66, expnt(s) = [33.87   5.095  1.159]
bas 67, expnt(s) = [0.3258]
bas 68, expnt(s) = [0.1027]
bas 69, expnt(s) = [1.407]
bas 70, expnt(s) = [0.388]
bas 71, expnt(s) = [1.057]
bas 72, expnt(s) = [33.87   5.095  1.159]
bas 73, expnt(s) = [0.3258]
bas 74, expnt(s) = [0.1027]
bas 75, expnt(s) = [1.407]
bas 76, expnt(s) = [0.388]
bas 77, expnt(s) = [1.057]
bas 78, expnt(s) = [5.988e+03 8.989e+02 2.059e+02 5.924e+01 1.987e+01 7.406e+00 2.930e+00
 1.189e+00 4.798e-01]
bas 79, expnt(s) = [0.07509]
bas 80, expnt(s) = [0.02832]
bas 81, expnt(s) = [3.266  0.6511 0.1696]
bas 82, expnt(s) = [0.05578]
bas 83, expnt(s) = [0.0205]
bas 84, expnt(s) = [0.1874]
bas 85, expnt(s) = [0.0801]
bas 86, expnt(s) = [0.1829]
bas 87, expnt(s) = [5.988e+03 8.989e+02 2.059e+02 5.924e+01 1.987e+01 7.406e+00 2.930e+00
 1.189e+00 4.798e-01]
bas 88, expnt(s) = [0.07509]
bas 89, expnt(s) = [0.02832]
bas 90, expnt(s) = [3.266  0.6511 0.1696]
bas 91, expnt(s) = [0.05578]
bas 92, expnt(s) = [0.0205]
bas 93, expnt(s) = [0.1874]
bas 94, expnt(s) = [0.0801]
bas 95, expnt(s) = [0.1829]
bas 96, expnt(s) = [5.988e+03 8.989e+02 2.059e+02 5.924e+01 1.987e+01 7.406e+00 2.930e+00
 1.189e+00 4.798e-01]
bas 97, expnt(s) = [0.07509]
bas 98, expnt(s) = [0.02832]
bas 99, expnt(s) = [3.266  0.6511 0.1696]
bas 100, expnt(s) = [0.05578]
bas 101, expnt(s) = [0.0205]
bas 102, expnt(s) = [0.1874]
bas 103, expnt(s) = [0.0801]
bas 104, expnt(s) = [0.1829]
bas 105, expnt(s) = [5.988e+03 8.989e+02 2.059e+02 5.924e+01 1.987e+01 7.406e+00 2.930e+00
 1.189e+00 4.798e-01]
bas 106, expnt(s) = [0.07509]
bas 107, expnt(s) = [0.02832]
bas 108, expnt(s) = [3.266  0.6511 0.1696]
bas 109, expnt(s) = [0.05578]
bas 110, expnt(s) = [0.0205]
bas 111, expnt(s) = [0.1874]
bas 112, expnt(s) = [0.0801]
bas 113, expnt(s) = [0.1829]
bas 114, expnt(s) = [5.988e+03 8.989e+02 2.059e+02 5.924e+01 1.987e+01 7.406e+00 2.930e+00
 1.189e+00 4.798e-01]
bas 115, expnt(s) = [0.07509]
bas 116, expnt(s) = [0.02832]
bas 117, expnt(s) = [3.266  0.6511 0.1696]
bas 118, expnt(s) = [0.05578]
bas 119, expnt(s) = [0.0205]
bas 120, expnt(s) = [0.1874]
bas 121, expnt(s) = [0.0801]
bas 122, expnt(s) = [0.1829]
bas 123, expnt(s) = [5.988e+03 8.989e+02 2.059e+02 5.924e+01 1.987e+01 7.406e+00 2.930e+00
 1.189e+00 4.798e-01]
bas 124, expnt(s) = [0.07509]
bas 125, expnt(s) = [0.02832]
bas 126, expnt(s) = [3.266  0.6511 0.1696]
bas 127, expnt(s) = [0.05578]
bas 128, expnt(s) = [0.0205]
bas 129, expnt(s) = [0.1874]
bas 130, expnt(s) = [0.0801]
bas 131, expnt(s) = [0.1829]
bas 132, expnt(s) = [5.988e+03 8.989e+02 2.059e+02 5.924e+01 1.987e+01 7.406e+00 2.930e+00
 1.189e+00 4.798e-01]
bas 133, expnt(s) = [0.07509]
bas 134, expnt(s) = [0.02832]
bas 135, expnt(s) = [3.266  0.6511 0.1696]
bas 136, expnt(s) = [0.05578]
bas 137, expnt(s) = [0.0205]
bas 138, expnt(s) = [0.1874]
bas 139, expnt(s) = [0.0801]
bas 140, expnt(s) = [0.1829]
bas 141, expnt(s) = [5.988e+03 8.989e+02 2.059e+02 5.924e+01 1.987e+01 7.406e+00 2.930e+00
 1.189e+00 4.798e-01]
bas 142, expnt(s) = [0.07509]
bas 143, expnt(s) = [0.02832]
bas 144, expnt(s) = [3.266  0.6511 0.1696]
bas 145, expnt(s) = [0.05578]
bas 146, expnt(s) = [0.0205]
bas 147, expnt(s) = [0.1874]
bas 148, expnt(s) = [0.0801]
bas 149, expnt(s) = [0.1829]
bas 150, expnt(s) = [5.988e+03 8.989e+02 2.059e+02 5.924e+01 1.987e+01 7.406e+00 2.930e+00
 1.189e+00 4.798e-01]
bas 151, expnt(s) = [0.07509]
bas 152, expnt(s) = [0.02832]
bas 153, expnt(s) = [3.266  0.6511 0.1696]
bas 154, expnt(s) = [0.05578]
bas 155, expnt(s) = [0.0205]
bas 156, expnt(s) = [0.1874]
bas 157, expnt(s) = [0.0801]
bas 158, expnt(s) = [0.1829]
bas 159, expnt(s) = [5.988e+03 8.989e+02 2.059e+02 5.924e+01 1.987e+01 7.406e+00 2.930e+00
 1.189e+00 4.798e-01]
bas 160, expnt(s) = [0.07509]
bas 161, expnt(s) = [0.02832]
bas 162, expnt(s) = [3.266  0.6511 0.1696]
bas 163, expnt(s) = [0.05578]
bas 164, expnt(s) = [0.0205]
bas 165, expnt(s) = [0.1874]
bas 166, expnt(s) = [0.0801]
bas 167, expnt(s) = [0.1829]
bas 168, expnt(s) = [5.988e+03 8.989e+02 2.059e+02 5.924e+01 1.987e+01 7.406e+00 2.930e+00
 1.189e+00 4.798e-01]
bas 169, expnt(s) = [0.07509]
bas 170, expnt(s) = [0.02832]
bas 171, expnt(s) = [3.266  0.6511 0.1696]
bas 172, expnt(s) = [0.05578]
bas 173, expnt(s) = [0.0205]
bas 174, expnt(s) = [0.1874]
bas 175, expnt(s) = [0.0801]
bas 176, expnt(s) = [0.1829]
bas 177, expnt(s) = [5.988e+03 8.989e+02 2.059e+02 5.924e+01 1.987e+01 7.406e+00 2.930e+00
 1.189e+00 4.798e-01]
bas 178, expnt(s) = [0.07509]
bas 179, expnt(s) = [0.02832]
bas 180, expnt(s) = [3.266  0.6511 0.1696]
bas 181, expnt(s) = [0.05578]
bas 182, expnt(s) = [0.0205]
bas 183, expnt(s) = [0.1874]
bas 184, expnt(s) = [0.0801]
bas 185, expnt(s) = [0.1829]
bas 186, expnt(s) = [5.988e+03 8.989e+02 2.059e+02 5.924e+01 1.987e+01 7.406e+00 2.930e+00
 1.189e+00 4.798e-01]
bas 187, expnt(s) = [0.07509]
bas 188, expnt(s) = [0.02832]
bas 189, expnt(s) = [3.266  0.6511 0.1696]
bas 190, expnt(s) = [0.05578]
bas 191, expnt(s) = [0.0205]
bas 192, expnt(s) = [0.1874]
bas 193, expnt(s) = [0.0801]
bas 194, expnt(s) = [0.1829]
bas 195, expnt(s) = [5.988e+03 8.989e+02 2.059e+02 5.924e+01 1.987e+01 7.406e+00 2.930e+00
 1.189e+00 4.798e-01]
bas 196, expnt(s) = [0.07509]
bas 197, expnt(s) = [0.02832]
bas 198, expnt(s) = [3.266  0.6511 0.1696]
bas 199, expnt(s) = [0.05578]
bas 200, expnt(s) = [0.0205]
bas 201, expnt(s) = [0.1874]
bas 202, expnt(s) = [0.0801]
bas 203, expnt(s) = [0.1829]
bas 204, expnt(s) = [5.988e+03 8.989e+02 2.059e+02 5.924e+01 1.987e+01 7.406e+00 2.930e+00
 1.189e+00 4.798e-01]
bas 205, expnt(s) = [0.07509]
bas 206, expnt(s) = [0.02832]
bas 207, expnt(s) = [3.266  0.6511 0.1696]
bas 208, expnt(s) = [0.05578]
bas 209, expnt(s) = [0.0205]
bas 210, expnt(s) = [0.1874]
bas 211, expnt(s) = [0.0801]
bas 212, expnt(s) = [0.1829]
bas 213, expnt(s) = [5.988e+03 8.989e+02 2.059e+02 5.924e+01 1.987e+01 7.406e+00 2.930e+00
 1.189e+00 4.798e-01]
bas 214, expnt(s) = [0.07509]
bas 215, expnt(s) = [0.02832]
bas 216, expnt(s) = [3.266  0.6511 0.1696]
bas 217, expnt(s) = [0.05578]
bas 218, expnt(s) = [0.0205]
bas 219, expnt(s) = [0.1874]
bas 220, expnt(s) = [0.0801]
bas 221, expnt(s) = [0.1829]
bas 222, expnt(s) = [5.988e+03 8.989e+02 2.059e+02 5.924e+01 1.987e+01 7.406e+00 2.930e+00
 1.189e+00 4.798e-01]
bas 223, expnt(s) = [0.07509]
bas 224, expnt(s) = [0.02832]
bas 225, expnt(s) = [3.266  0.6511 0.1696]
bas 226, expnt(s) = [0.05578]
bas 227, expnt(s) = [0.0205]
bas 228, expnt(s) = [0.1874]
bas 229, expnt(s) = [0.0801]
bas 230, expnt(s) = [0.1829]
bas 231, expnt(s) = [5.988e+03 8.989e+02 2.059e+02 5.924e+01 1.987e+01 7.406e+00 2.930e+00
 1.189e+00 4.798e-01]
bas 232, expnt(s) = [0.07509]
bas 233, expnt(s) = [0.02832]
bas 234, expnt(s) = [3.266  0.6511 0.1696]
bas 235, expnt(s) = [0.05578]
bas 236, expnt(s) = [0.0205]
bas 237, expnt(s) = [0.1874]
bas 238, expnt(s) = [0.0801]
bas 239, expnt(s) = [0.1829]
bas 240, expnt(s) = [5.988e+03 8.989e+02 2.059e+02 5.924e+01 1.987e+01 7.406e+00 2.930e+00
 1.189e+00 4.798e-01]
bas 241, expnt(s) = [0.07509]
bas 242, expnt(s) = [0.02832]
bas 243, expnt(s) = [3.266  0.6511 0.1696]
bas 244, expnt(s) = [0.05578]
bas 245, expnt(s) = [0.0205]
bas 246, expnt(s) = [0.1874]
bas 247, expnt(s) = [0.0801]
bas 248, expnt(s) = [0.1829]
bas 249, expnt(s) = [5.988e+03 8.989e+02 2.059e+02 5.924e+01 1.987e+01 7.406e+00 2.930e+00
 1.189e+00 4.798e-01]
bas 250, expnt(s) = [0.07509]
bas 251, expnt(s) = [0.02832]
bas 252, expnt(s) = [3.266  0.6511 0.1696]
bas 253, expnt(s) = [0.05578]
bas 254, expnt(s) = [0.0205]
bas 255, expnt(s) = [0.1874]
bas 256, expnt(s) = [0.0801]
bas 257, expnt(s) = [0.1829]
bas 258, expnt(s) = [5.988e+03 8.989e+02 2.059e+02 5.924e+01 1.987e+01 7.406e+00 2.930e+00
 1.189e+00 4.798e-01]
bas 259, expnt(s) = [0.07509]
bas 260, expnt(s) = [0.02832]
bas 261, expnt(s) = [3.266  0.6511 0.1696]
bas 262, expnt(s) = [0.05578]
bas 263, expnt(s) = [0.0205]
bas 264, expnt(s) = [0.1874]
bas 265, expnt(s) = [0.0801]
bas 266, expnt(s) = [0.1829]
bas 267, expnt(s) = [5.988e+03 8.989e+02 2.059e+02 5.924e+01 1.987e+01 7.406e+00 2.930e+00
 1.189e+00 4.798e-01]
bas 268, expnt(s) = [0.07509]
bas 269, expnt(s) = [0.02832]
bas 270, expnt(s) = [3.266  0.6511 0.1696]
bas 271, expnt(s) = [0.05578]
bas 272, expnt(s) = [0.0205]
bas 273, expnt(s) = [0.1874]
bas 274, expnt(s) = [0.0801]
bas 275, expnt(s) = [0.1829]
bas 276, expnt(s) = [5.988e+03 8.989e+02 2.059e+02 5.924e+01 1.987e+01 7.406e+00 2.930e+00
 1.189e+00 4.798e-01]
bas 277, expnt(s) = [0.07509]
bas 278, expnt(s) = [0.02832]
bas 279, expnt(s) = [3.266  0.6511 0.1696]
bas 280, expnt(s) = [0.05578]
bas 281, expnt(s) = [0.0205]
bas 282, expnt(s) = [0.1874]
bas 283, expnt(s) = [0.0801]
bas 284, expnt(s) = [0.1829]
bas 285, expnt(s) = [5.988e+03 8.989e+02 2.059e+02 5.924e+01 1.987e+01 7.406e+00 2.930e+00
 1.189e+00 4.798e-01]
bas 286, expnt(s) = [0.07509]
bas 287, expnt(s) = [0.02832]
bas 288, expnt(s) = [3.266  0.6511 0.1696]
bas 289, expnt(s) = [0.05578]
bas 290, expnt(s) = [0.0205]
bas 291, expnt(s) = [0.1874]
bas 292, expnt(s) = [0.0801]
bas 293, expnt(s) = [0.1829]
bas 294, expnt(s) = [5.988e+03 8.989e+02 2.059e+02 5.924e+01 1.987e+01 7.406e+00 2.930e+00
 1.189e+00 4.798e-01]
bas 295, expnt(s) = [0.07509]
bas 296, expnt(s) = [0.02832]
bas 297, expnt(s) = [3.266  0.6511 0.1696]
bas 298, expnt(s) = [0.05578]
bas 299, expnt(s) = [0.0205]
bas 300, expnt(s) = [0.1874]
bas 301, expnt(s) = [0.0801]
bas 302, expnt(s) = [0.1829]
bas 303, expnt(s) = [5.988e+03 8.989e+02 2.059e+02 5.924e+01 1.987e+01 7.406e+00 2.930e+00
 1.189e+00 4.798e-01]
bas 304, expnt(s) = [0.07509]
bas 305, expnt(s) = [0.02832]
bas 306, expnt(s) = [3.266  0.6511 0.1696]
bas 307, expnt(s) = [0.05578]
bas 308, expnt(s) = [0.0205]
bas 309, expnt(s) = [0.1874]
bas 310, expnt(s) = [0.0801]
bas 311, expnt(s) = [0.1829]
CPU time:         0.66
arg.atm = [[  6  20   1  23   0   0]
 [  8  24   1  27   0   0]
 [  6  28   1  31   0   0]
 [  8  32   1  35   0   0]
 [  6  36   1  39   0   0]
 [  8  40   1  43   0   0]
 [  1  44   1  47   0   0]
 [  1  48   1  51   0   0]
 [  1  52   1  55   0   0]
 [  1  56   1  59   0   0]
 [  3  60   1  63   0   0]
 [  3  64   1  67   0   0]
 [  3  68   1  71   0   0]
 [  3  72   1  75   0   0]
 [  3  76   1  79   0   0]
 [  3  80   1  83   0   0]
 [  3  84   1  87   0   0]
 [  3  88   1  91   0   0]
 [  3  92   1  95   0   0]
 [  3  96   1  99   0   0]
 [  3 100   1 103   0   0]
 [  3 104   1 107   0   0]
 [  3 108   1 111   0   0]
 [  3 112   1 115   0   0]
 [  3 116   1 119   0   0]
 [  3 120   1 123   0   0]
 [  3 124   1 127   0   0]
 [  3 128   1 131   0   0]
 [  3 132   1 135   0   0]
 [  3 136   1 139   0   0]
 [  3 140   1 143   0   0]
 [  3 144   1 147   0   0]
 [  3 148   1 151   0   0]
 [  3 152   1 155   0   0]
 [  3 156   1 159   0   0]
 [  3 160   1 163   0   0]]
arg.bas = [[  0   0   8 ... 227 235   0]
 [  0   0   1 ... 251 252   0]
 [  0   0   1 ... 253 254   0]
 ...
 [ 35   2   1 ... 205 206   0]
 [ 35   2   1 ... 207 208   0]
 [ 35   3   1 ... 209 210   0]]
arg.env = [ 0.00000000e+00  0.00000000e+00  0.00000000e+00  0.00000000e+00
  0.00000000e+00  0.00000000e+00  0.00000000e+00  0.00000000e+00
  0.00000000e+00  0.00000000e+00  0.00000000e+00  0.00000000e+00
  0.00000000e+00  0.00000000e+00  0.00000000e+00  0.00000000e+00
  0.00000000e+00  0.00000000e+00  0.00000000e+00  0.00000000e+00
  9.24019383e+00  8.69207877e+00  1.93853964e+01  0.00000000e+00
  9.20328748e+00  8.02338028e+00  1.69179054e+01  0.00000000e+00
  1.00360331e+01  9.81468947e+00  1.55586821e+01  0.00000000e+00
  1.08957451e+01  1.15484943e+01  1.69739736e+01  0.00000000e+00
  1.09115621e+01  1.07758609e+01  1.94118904e+01  0.00000000e+00
  1.00150193e+01  9.85709492e+00  1.34415463e+01  0.00000000e+00
  9.84993286e+00  7.17778453e+00  2.04358385e+01  0.00000000e+00
  7.47029524e+00  9.20530949e+00  1.99330201e+01  0.00000000e+00
  1.03268241e+01  1.22452552e+01  2.05375057e+01  0.00000000e+00
  1.26928935e+01  1.02404070e+01  1.98977389e+01  0.00000000e+00
  9.94742383e+00  9.94742383e+00  9.94742383e+00  0.00000000e+00
  9.94742383e+00  3.31580794e+00  9.94742383e+00  0.00000000e+00
  1.65790397e+01  9.94742383e+00  9.94742383e+00  0.00000000e+00
  3.31580794e+00  9.94742383e+00  9.94742383e+00  0.00000000e+00
  9.94742383e+00  1.65790397e+01  9.94742383e+00  0.00000000e+00
  1.32632318e+01  6.63161589e+00  6.63161589e+00  0.00000000e+00
  6.63161589e+00  6.63161589e+00  6.63161589e+00  0.00000000e+00
  1.32632318e+01  1.32632318e+01  6.63161589e+00  0.00000000e+00
  6.63161589e+00  1.32632318e+01  6.63161589e+00  0.00000000e+00
  1.65790397e+01  3.31580794e+00  9.94742383e+00  0.00000000e+00
  3.31580794e+00  3.31580794e+00  9.94742383e+00  0.00000000e+00
  1.65790397e+01  1.65790397e+01  9.94742383e+00  0.00000000e+00
  3.31580794e+00  1.65790397e+01  9.94742383e+00  0.00000000e+00
  9.94742383e+00  9.94742383e+00  3.31580794e+00  0.00000000e+00
  9.94742383e+00  3.31580794e+00  3.31580794e+00  0.00000000e+00
  1.65790397e+01  9.94742383e+00  3.31580794e+00  0.00000000e+00
  3.31580794e+00  9.94742383e+00  3.31580794e+00  0.00000000e+00
  9.94742383e+00  1.65790397e+01  3.31580794e+00  0.00000000e+00
  1.32632318e+01  0.00000000e+00  6.63161589e+00  0.00000000e+00
  6.63161589e+00  0.00000000e+00  6.63161589e+00  0.00000000e+00
  0.00000000e+00  6.63161589e+00  6.63161589e+00  0.00000000e+00
  0.00000000e+00  1.32632318e+01  6.63161589e+00  0.00000000e+00
  1.65790397e+01  3.31580794e+00  3.31580794e+00  0.00000000e+00
  3.31580794e+00  3.31580794e+00  3.31580794e+00  0.00000000e+00
  1.65790397e+01  1.65790397e+01  3.31580794e+00  0.00000000e+00
  3.31580794e+00  1.65790397e+01  3.31580794e+00  0.00000000e+00
  5.98800000e+03  8.98900000e+02  2.05900000e+02  5.92400000e+01
  1.98700000e+01  7.40600000e+00  2.93000000e+00  1.18900000e+00
  4.79800000e-01  2.29069316e-01  4.25756548e-01  7.25056076e-01
  1.13074246e+00  1.57971158e+00  1.88304523e+00  1.78512072e+00
  1.13373211e+00  2.78411257e-01 -1.33552750e-01 -2.46934407e-01
 -4.16416863e-01 -6.63522613e-01 -9.24900580e-01 -1.17847379e+00
 -1.17034612e+00 -1.05567981e+00 -6.04251387e-01  7.50900000e-02
  3.62411193e-01  2.83200000e-02  1.74415453e-01  3.26600000e+00
  6.51100000e-01  1.69600000e-01  4.55280795e-01  3.34078737e-01
  2.74333054e-01  5.57800000e-02  7.90828897e-02  2.05000000e-02
  2.26295917e-02  1.87400000e-01  1.39275961e-01  8.01000000e-02
  3.14692425e-02  1.82900000e-01  4.31510332e-02  3.38700000e+01
  5.09500000e+00  1.15900000e+00  9.04334519e-01  1.63100455e+00
  2.40491525e+00  3.25800000e-01  1.08950276e+00  1.02700000e-01
  4.58345379e-01  1.40700000e+00  4.47045795e+00  3.88000000e-01
  8.93354953e-01  1.05700000e+00  2.87515071e+00  8.23600000e+03
  1.23500000e+03  2.80800000e+02  7.92700000e+01  2.55900000e+01
  8.99700000e+00  3.31900000e+00  3.64300000e-01  1.18480296e+00
  2.20874210e+00  3.73316324e+00  5.61216719e+00  6.89519583e+00
  5.82409515e+00  2.19663441e+00 -1.08712663e-02 -4.28969670e-01
 -8.03166571e-01 -1.36745981e+00 -2.11525239e+00 -2.78571299e+00
 -2.89453423e+00 -1.83934657e+00  1.23268730e+00  9.05900000e-01
  2.34598494e+00  1.28500000e-01  5.42241022e-01  1.87100000e+01
  4.13300000e+00  1.20000000e+00  4.47572721e+00  4.19627876e+00
  2.98800046e+00  3.82700000e-01  8.78127282e-01  1.20900000e-01
  2.07977938e-01  1.09700000e+00  3.06825171e+00  3.18000000e-01
  3.51379844e-01  7.61000000e-01  1.06690522e+00  1.53300000e+04
  2.29900000e+03  5.22400000e+02  1.47300000e+02  4.75500000e+01
  1.67600000e+01  6.20700000e+00  6.88200000e-01  1.81067529e+00
  3.37486577e+00  5.72265412e+00  8.66150357e+00  1.08070276e+01
  9.28179538e+00  3.56346173e+00 -1.59395830e-02 -6.86527364e-01
 -1.28759909e+00 -2.19507417e+00 -3.43047366e+00 -4.58719692e+00
 -4.89805685e+00 -2.99457591e+00  1.97563931e+00  1.75200000e+00
  3.84738459e+00  2.38400000e-01  8.61975084e-01  3.44600000e+01
  7.74900000e+00  2.28000000e+00  1.00262994e+01  9.72213774e+00
  6.55849668e+00  7.15600000e-01  1.92009319e+00  2.14000000e-01
  4.24621137e-01  2.31400000e+00  1.13283134e+01  6.45000000e-01
  1.21132000e+00  1.42800000e+00  4.39692268e+00]
ecpbas  = []


******** <class 'pyscf.scf.hf.RHF'> ********
method = RHF
initial guess = minao
damping factor = 0
level_shift factor = 0
DIIS = <class 'pyscf.scf.diis.CDIIS'>
diis_start_cycle = 1
diis_space = 8
SCF conv_tol = 1e-09
SCF conv_tol_grad = None
SCF max_cycles = 50
direct_scf = True
direct_scf_tol = 1e-13
chkfile to save SCF result = /burg/ccce/users/eav2136/projects/batteries/01_mp2/tmp/tmp1i40i7cv
max_memory 700000 MB (current use 95 MB)
Set gradient conv threshold to 3.16228e-05
Nelec from initial guess = 123.99830993821733
    CPU time for vj and vk   3178.52 sec, wall time     99.88 sec
E1 = -2427.9737073998845  E_coul = 1030.3216356950998
init E= -538.796177714205
cond(S) = 15442901.816712875
    CPU time for initialize scf   3188.46 sec, wall time    100.46 sec
  HOMO = -0.102669150885331  LUMO = -0.0904039455355086
  mo_energy =
[-2.08435418e+01 -2.07936083e+01 -2.07926150e+01 -1.13785575e+01
 -1.13528349e+01 -1.13477144e+01 -2.52788557e+00 -2.52140395e+00
 -2.52091941e+00 -2.51856209e+00 -2.51379303e+00 -2.50704035e+00
 -2.50498341e+00 -2.50485707e+00 -2.50295384e+00 -2.50273043e+00
 -2.50030740e+00 -2.49990713e+00 -2.49953580e+00 -2.49916649e+00
 -2.49726261e+00 -2.49629376e+00 -2.49535511e+00 -2.49437813e+00
 -2.49380489e+00 -2.49359554e+00 -2.49246630e+00 -2.49244856e+00
 -2.49170991e+00 -2.49170588e+00 -2.48758287e+00 -2.48712978e+00
 -2.16878601e+00 -1.79613429e+00 -1.65779556e+00 -1.33706711e+00
 -1.05209875e+00 -9.01387685e-01 -8.03094499e-01 -7.85504461e-01
 -6.88638927e-01 -6.65194923e-01 -6.21457108e-01 -5.91052916e-01
 -5.69829975e-01 -5.00331404e-01 -4.94296543e-01 -4.38372051e-01
 -4.16406515e-01 -4.05298427e-01 -4.04039863e-01 -3.24610910e-01
 -2.76970583e-01 -2.37499632e-01 -2.34459778e-01 -2.24554151e-01
 -1.55647656e-01 -1.52773720e-01 -1.51264600e-01 -1.41157986e-01
 -1.04388953e-01 -1.02669151e-01 -9.04039455e-02 -5.98909865e-02
 -5.84514695e-02 -5.31705465e-02 -4.51385823e-02 -4.11249611e-02
 -3.84843979e-02 -2.32119407e-02 -2.20609216e-02 -1.60968970e-02
 -1.25758456e-02 -1.24138845e-02 -9.15080858e-03 -2.13144335e-03
 -1.56920269e-03 -1.34684250e-03  5.71200267e-03  1.76227041e-02
  1.98419911e-02  2.28259434e-02  2.34567579e-02  2.62577058e-02
  2.66993580e-02  3.35865415e-02  3.67152898e-02  3.68869780e-02
  3.82578155e-02  4.00600362e-02  4.33059356e-02  4.48217572e-02
  4.55653581e-02  4.66092800e-02  4.74134732e-02  4.76154898e-02
  5.01714418e-02  5.12794454e-02  5.27386657e-02  5.36512621e-02
  5.56844211e-02  5.65784498e-02  5.75546168e-02  5.97673205e-02
  5.99347662e-02  6.29584575e-02  6.52788077e-02  6.61497725e-02
  6.65616243e-02  6.83357585e-02  6.89339907e-02  7.02608949e-02
  7.29013720e-02  7.40590189e-02  7.61685388e-02  7.70657469e-02
  7.73416403e-02  7.86446977e-02  8.37531408e-02  8.53135694e-02
  8.62982263e-02  8.67651086e-02  8.75010751e-02  8.81360426e-02
  8.85168261e-02  9.05225659e-02  9.22544138e-02  9.31115420e-02
  9.42606769e-02  9.53821581e-02  9.68917098e-02  9.79266532e-02
  9.82424079e-02  9.93569394e-02  1.01056025e-01  1.01789085e-01
  1.02434936e-01  1.05468155e-01  1.06120039e-01  1.06704374e-01
  1.07507972e-01  1.08787972e-01  1.13519401e-01  1.14131476e-01
  1.15637547e-01  1.16322510e-01  1.17514606e-01  1.19128207e-01
  1.20867123e-01  1.21720882e-01  1.21808892e-01  1.24011710e-01
  1.25831198e-01  1.26047085e-01  1.27034875e-01  1.28199013e-01
  1.30305787e-01  1.31035717e-01  1.32080169e-01  1.32876052e-01
  1.33228225e-01  1.34067329e-01  1.35760096e-01  1.38956977e-01
  1.39910008e-01  1.42356407e-01  1.42958941e-01  1.43784109e-01
  1.46886442e-01  1.48201678e-01  1.48400489e-01  1.51681101e-01
  1.53784489e-01  1.55945755e-01  1.57227023e-01  1.59013702e-01
  1.59316906e-01  1.63756338e-01  1.64515765e-01  1.64919363e-01
  1.67749853e-01  1.68319142e-01  1.69911272e-01  1.70879390e-01
  1.71272145e-01  1.73042155e-01  1.75101969e-01  1.75428997e-01
  1.79611219e-01  1.80839659e-01  1.81961686e-01  1.82462023e-01
  1.84954182e-01  1.85354830e-01  1.87822631e-01  1.88365427e-01
  1.93392595e-01  1.93527598e-01  1.94437444e-01  1.94809760e-01
  1.95351088e-01  1.96713457e-01  1.96745160e-01  2.00090742e-01
  2.00374202e-01  2.02891254e-01  2.03680573e-01  2.05208567e-01
  2.05328878e-01  2.05697508e-01  2.07303031e-01  2.08156031e-01
  2.09451202e-01  2.11756539e-01  2.13079271e-01  2.14200521e-01
  2.16429059e-01  2.18467126e-01  2.18699389e-01  2.20043829e-01
  2.23926030e-01  2.25794127e-01  2.27174100e-01  2.27994496e-01
  2.29519573e-01  2.31621631e-01  2.33865649e-01  2.36049133e-01
  2.40167887e-01  2.40797561e-01  2.42814376e-01  2.46026368e-01
  2.48509535e-01  2.49879630e-01  2.50542306e-01  2.50917029e-01
  2.53813452e-01  2.55183844e-01  2.56558298e-01  2.60386008e-01
  2.63992441e-01  2.64825300e-01  2.66805904e-01  2.67951206e-01
  2.71622412e-01  2.75068338e-01  2.76578858e-01  2.80105457e-01
  2.81459743e-01  2.83359226e-01  2.85104699e-01  2.85896735e-01
  2.86634568e-01  2.87149298e-01  2.91977175e-01  2.93288106e-01
  2.95449237e-01  2.98718583e-01  2.99582529e-01  3.00300749e-01
  3.02673742e-01  3.04660807e-01  3.07534382e-01  3.09715922e-01
  3.11080181e-01  3.14153429e-01  3.15359156e-01  3.17034497e-01
  3.20302776e-01  3.22585881e-01  3.24418448e-01  3.25030911e-01
  3.26678426e-01  3.31014252e-01  3.32627172e-01  3.35143943e-01
  3.38626429e-01  3.39214139e-01  3.41095205e-01  3.44793561e-01
  3.47716198e-01  3.48651412e-01  3.49514782e-01  3.51320742e-01
  3.53573025e-01  3.54802190e-01  3.54974696e-01  3.57381549e-01
  3.57764036e-01  3.61325603e-01  3.62839859e-01  3.64068191e-01
  3.65823344e-01  3.66257776e-01  3.69696845e-01  3.71790317e-01
  3.77607638e-01  3.79788749e-01  3.80581764e-01  3.83715762e-01
  3.85350307e-01  3.88023871e-01  3.91004399e-01  3.92252120e-01
  3.93005992e-01  3.93931632e-01  3.97246286e-01  3.99569694e-01
  4.00435172e-01  4.03314606e-01  4.05354742e-01  4.06605443e-01
  4.07156572e-01  4.07390466e-01  4.08104802e-01  4.11118388e-01
  4.12967612e-01  4.14727962e-01  4.14964235e-01  4.16650013e-01
  4.18811699e-01  4.19906602e-01  4.21518962e-01  4.22882666e-01
  4.23574315e-01  4.24944466e-01  4.27896534e-01  4.29216578e-01
  4.30396489e-01  4.32256837e-01  4.34589182e-01  4.35879303e-01
  4.37475966e-01  4.40058339e-01  4.41552835e-01  4.43501535e-01
  4.45529298e-01  4.46035079e-01  4.47285156e-01  4.49165699e-01
  4.50021245e-01  4.51313272e-01  4.52271813e-01  4.53671206e-01
  4.54874824e-01  4.56844829e-01  4.59238469e-01  4.61597921e-01
  4.62085413e-01  4.62492766e-01  4.64445380e-01  4.67679800e-01
  4.70071901e-01  4.70435650e-01  4.74869378e-01  4.75561773e-01
  4.78095605e-01  4.78350501e-01  4.80089636e-01  4.82119380e-01
  4.84341064e-01  4.84509043e-01  4.86630783e-01  4.88106725e-01
  4.88579313e-01  4.90456300e-01  4.93484615e-01  4.94461404e-01
  4.95925060e-01  4.96533407e-01  4.97377191e-01  5.01329949e-01
  5.02906365e-01  5.03472207e-01  5.04150438e-01  5.05999121e-01
  5.07915371e-01  5.08292734e-01  5.10313277e-01  5.12646790e-01
  5.15009394e-01  5.15556754e-01  5.16620649e-01  5.18480898e-01
  5.22201099e-01  5.24783126e-01  5.28367658e-01  5.29442669e-01
  5.31853482e-01  5.32247131e-01  5.34387630e-01  5.38595414e-01
  5.39198722e-01  5.41239064e-01  5.43503150e-01  5.47952234e-01
  5.52273680e-01  5.54799884e-01  5.58776030e-01  5.60676122e-01
  5.62181526e-01  5.63940367e-01  5.69687329e-01  5.70898482e-01
  5.72420700e-01  5.73334311e-01  5.77220567e-01  5.77567131e-01
  5.79526925e-01  5.81376202e-01  5.82247420e-01  5.84048929e-01
  5.84925524e-01  5.87233892e-01  5.93507589e-01  5.95874733e-01
  5.97860306e-01  5.99616386e-01  6.00334213e-01  6.02778154e-01
  6.06003067e-01  6.08615502e-01  6.09481891e-01  6.12680597e-01
  6.14419066e-01  6.19487657e-01  6.19851367e-01  6.22668500e-01
  6.23974227e-01  6.24756217e-01  6.25232784e-01  6.28079295e-01
  6.28639538e-01  6.33185531e-01  6.33637007e-01  6.36818586e-01
  6.40243630e-01  6.41286306e-01  6.43243633e-01  6.45250286e-01
  6.45556773e-01  6.46217699e-01  6.48302613e-01  6.51186316e-01
  6.54097006e-01  6.56361711e-01  6.57450162e-01  6.58151111e-01
  6.62520481e-01  6.63809848e-01  6.65497498e-01  6.67419817e-01
  6.68914382e-01  6.71770820e-01  6.72963290e-01  6.74765157e-01
  6.76920478e-01  6.78504712e-01  6.79540933e-01  6.83513691e-01
  6.87189921e-01  6.87600326e-01  6.90034532e-01  6.92576104e-01
  6.93417416e-01  6.95184513e-01  6.97809760e-01  6.99212921e-01
  7.01408669e-01  7.03801977e-01  7.04726405e-01  7.04932227e-01
  7.06808896e-01  7.10284995e-01  7.11932160e-01  7.12736511e-01
  7.16230012e-01  7.20227107e-01  7.20531746e-01  7.24498433e-01
  7.27033882e-01  7.30391407e-01  7.31831719e-01  7.35759088e-01
  7.39147844e-01  7.40108674e-01  7.43223149e-01  7.45541844e-01
  7.47977713e-01  7.49320143e-01  7.51303763e-01  7.52878559e-01
  7.55862664e-01  7.57347725e-01  7.58551588e-01  7.61321152e-01
  7.62117138e-01  7.64924428e-01  7.69260995e-01  7.70500451e-01
  7.72739026e-01  7.74113229e-01  7.77265250e-01  7.83398309e-01
  7.85901932e-01  7.87506159e-01  7.88520700e-01  7.90663896e-01
  7.92706821e-01  7.95507604e-01  7.97363356e-01  7.99441995e-01
  8.01421247e-01  8.04671130e-01  8.05663046e-01  8.08296694e-01
  8.09815868e-01  8.10965967e-01  8.13713278e-01  8.14367000e-01
  8.16012592e-01  8.17176379e-01  8.21082470e-01  8.21858910e-01
  8.25381234e-01  8.28860982e-01  8.29492603e-01  8.31162509e-01
  8.34604188e-01  8.36044963e-01  8.37812310e-01  8.39575942e-01
  8.41500971e-01  8.41826148e-01  8.44247695e-01  8.45155157e-01
  8.47160554e-01  8.48649990e-01  8.49205399e-01  8.52644180e-01
  8.55724803e-01  8.56660653e-01  8.57417484e-01  8.58840761e-01
  8.59494453e-01  8.59588641e-01  8.60511412e-01  8.63555744e-01
  8.64199762e-01  8.66660321e-01  8.71353502e-01  8.72555886e-01
  8.75880904e-01  8.78657958e-01  8.81481292e-01  8.82315223e-01
  8.85669547e-01  8.86691986e-01  8.88409911e-01  8.90443698e-01
  8.92825714e-01  8.93411681e-01  8.94950393e-01  8.97503244e-01
  8.98986637e-01  9.00754241e-01  9.02713780e-01  9.03581318e-01
  9.06526154e-01  9.07436787e-01  9.08579026e-01  9.10583374e-01
  9.14343730e-01  9.15525383e-01  9.19380475e-01  9.22729948e-01
  9.23287376e-01  9.24949293e-01  9.26680381e-01  9.30705017e-01
  9.34461359e-01  9.36086189e-01  9.37396809e-01  9.39895983e-01
  9.43154231e-01  9.43926455e-01  9.45390932e-01  9.46310354e-01
  9.49787072e-01  9.51748296e-01  9.53783415e-01  9.54280237e-01
  9.56998258e-01  9.59695736e-01  9.60556715e-01  9.63474634e-01
  9.68234482e-01  9.69479582e-01  9.70961027e-01  9.71389718e-01
  9.73609800e-01  9.76917735e-01  9.78955632e-01  9.80901898e-01
  9.84327685e-01  9.86711667e-01  9.87722434e-01  9.89133334e-01
  9.91642296e-01  9.92655948e-01  9.93919441e-01  9.96588479e-01
  9.99634182e-01  1.00282778e+00  1.00476553e+00  1.00540057e+00
  1.00769252e+00  1.00805256e+00  1.01076937e+00  1.01120091e+00
  1.01272429e+00  1.01454555e+00  1.01507812e+00  1.01579693e+00
  1.01755614e+00  1.02052678e+00  1.02255509e+00  1.02393361e+00
  1.02498527e+00  1.02609602e+00  1.02793452e+00  1.02925969e+00
  1.03239180e+00  1.03536853e+00  1.03709369e+00  1.03878421e+00
  1.03951304e+00  1.04162243e+00  1.04271736e+00  1.04405691e+00
  1.04910402e+00  1.04951576e+00  1.05014249e+00  1.05169585e+00
  1.05420727e+00  1.05663553e+00  1.05918829e+00  1.06093463e+00
  1.06251644e+00  1.06565356e+00  1.06768319e+00  1.06908129e+00
  1.07064613e+00  1.07285105e+00  1.07295229e+00  1.07656972e+00
  1.08012163e+00  1.08450816e+00  1.08494563e+00  1.08697863e+00
  1.09290381e+00  1.09410998e+00  1.09554668e+00  1.10058681e+00
  1.10356253e+00  1.10394356e+00  1.10666322e+00  1.10825311e+00
  1.11093737e+00  1.11251778e+00  1.11441745e+00  1.11619074e+00
  1.11800940e+00  1.12032535e+00  1.12253591e+00  1.12696420e+00
  1.12791148e+00  1.12985434e+00  1.13336454e+00  1.13390621e+00
  1.13600103e+00  1.13867985e+00  1.14004477e+00  1.14053258e+00
  1.14295255e+00  1.14462365e+00  1.14636618e+00  1.14847186e+00
  1.15177130e+00  1.15515757e+00  1.15908378e+00  1.16195002e+00
  1.16303236e+00  1.16500504e+00  1.17234789e+00  1.17601346e+00
  1.17792567e+00  1.18023847e+00  1.18195962e+00  1.18254322e+00
  1.18502651e+00  1.18721453e+00  1.18898867e+00  1.18958834e+00
  1.19064393e+00  1.19342718e+00  1.19452023e+00  1.19698147e+00
  1.19958725e+00  1.20202191e+00  1.20635492e+00  1.20939181e+00
  1.21184091e+00  1.21506072e+00  1.21776916e+00  1.21882140e+00
  1.22159114e+00  1.22367730e+00  1.22587743e+00  1.22874478e+00
  1.23093752e+00  1.23172425e+00  1.23503196e+00  1.23597941e+00
  1.23876385e+00  1.23971492e+00  1.24218034e+00  1.24538953e+00
  1.24713807e+00  1.24921557e+00  1.24975941e+00  1.25291426e+00
  1.25590463e+00  1.25691229e+00  1.25961811e+00  1.26108173e+00
  1.26221469e+00  1.26257383e+00  1.26380072e+00  1.26611923e+00
  1.26685257e+00  1.27146172e+00  1.27220003e+00  1.27610989e+00
  1.27822823e+00  1.28314193e+00  1.28610696e+00  1.28959242e+00
  1.29211602e+00  1.29441143e+00  1.29835923e+00  1.29966085e+00
  1.30572569e+00  1.30613157e+00  1.31142824e+00  1.31376401e+00
  1.31472007e+00  1.31772561e+00  1.31837941e+00  1.32420452e+00
  1.33174727e+00  1.33445459e+00  1.33523051e+00  1.33991963e+00
  1.34307226e+00  1.34681566e+00  1.34892974e+00  1.35163779e+00
  1.35363022e+00  1.35417711e+00  1.36093657e+00  1.36213699e+00
  1.36604332e+00  1.36798203e+00  1.37103764e+00  1.37675404e+00
  1.37863508e+00  1.38063250e+00  1.38367136e+00  1.38734828e+00
  1.39213381e+00  1.39498588e+00  1.39974112e+00  1.40220213e+00
  1.40364627e+00  1.40909005e+00  1.41072333e+00  1.41206912e+00
  1.41668740e+00  1.41747526e+00  1.42319174e+00  1.42767525e+00
  1.42968386e+00  1.43085180e+00  1.44107010e+00  1.44437914e+00
  1.44598333e+00  1.44735351e+00  1.45761801e+00  1.45997332e+00
  1.46213319e+00  1.46553559e+00  1.46992252e+00  1.47264698e+00
  1.47812829e+00  1.48210035e+00  1.48558443e+00  1.48926787e+00
  1.49205914e+00  1.49609374e+00  1.50136285e+00  1.51561987e+00
  1.51696227e+00  1.51873160e+00  1.52457703e+00  1.52666616e+00
  1.53710694e+00  1.53889965e+00  1.54068415e+00  1.54407409e+00
  1.54751099e+00  1.56214855e+00  1.57066633e+00  1.58214949e+00
  1.60854105e+00  1.60949847e+00  1.61343388e+00  1.62893228e+00
  1.63167485e+00  1.64096245e+00  1.64381742e+00  1.65446808e+00
  1.68027042e+00  1.68736519e+00  1.69057002e+00  1.70940259e+00
  1.76219157e+00  1.82460654e+00  1.84547666e+00  1.89295137e+00
  1.90025015e+00  1.93607851e+00  1.96391191e+00  2.01227272e+00
  2.06746372e+00  2.06904619e+00  2.15490152e+00  2.23067618e+00
  2.28043319e+00  2.33435684e+00  2.39913374e+00  2.41786535e+00
  2.46641493e+00  2.48718264e+00  2.50918491e+00  2.57188828e+00
  2.63091872e+00  2.69773725e+00  2.71731501e+00  2.71839705e+00
  2.76432802e+00  2.82592372e+00  2.85379119e+00  2.86163486e+00
  2.88004108e+00  2.89362864e+00  2.97491093e+00  3.01598585e+00
  3.07368711e+00  3.10084553e+00  3.13412907e+00  3.13869369e+00
  3.16573736e+00  3.18583792e+00  3.20522791e+00  3.24203044e+00
  3.28227504e+00  3.28320243e+00  3.29906676e+00  3.30871153e+00
  3.33273200e+00  3.35478902e+00  3.35674844e+00  3.36323313e+00
  3.38991864e+00  3.40712703e+00  3.41251127e+00  3.41763595e+00
  3.43613815e+00  3.44668063e+00  3.45646981e+00  3.46771252e+00
  3.47424391e+00  3.48441819e+00  3.48773927e+00  3.51502855e+00
  3.51896550e+00  3.52747741e+00  3.53520467e+00  3.54249724e+00
  3.55150667e+00  3.56880587e+00  3.57779515e+00  3.60810681e+00
  3.62018995e+00  3.64226280e+00  3.67914960e+00  3.68022680e+00
  3.68752476e+00  3.69152852e+00  3.70070197e+00  3.70373390e+00
  3.75804126e+00  3.77229386e+00  3.77596415e+00  3.80334100e+00
  3.85617977e+00  3.87267353e+00  3.90857106e+00  3.93297513e+00
  3.95766502e+00  3.97029119e+00  3.99347560e+00  4.00236253e+00
  4.03652168e+00  4.04257311e+00  4.06799556e+00  4.07257943e+00
  4.08431381e+00  4.09735296e+00  4.10773851e+00  4.15971662e+00
  4.25271300e+00  4.28970990e+00  4.29789083e+00  4.30024979e+00
  4.39305411e+00  4.39498318e+00  4.43178402e+00  4.44219124e+00
  4.50270924e+00  4.51079646e+00  4.53337899e+00  4.54113724e+00
  4.61262621e+00  4.64975658e+00  4.66666231e+00  4.68297894e+00
  4.71148362e+00  4.78789705e+00  4.82539102e+00  4.94173929e+00
  5.00764049e+00  5.03612729e+00  5.07058707e+00  5.12709788e+00
  5.13396460e+00  5.29705807e+00  5.31347791e+00  5.37851344e+00
  5.43111353e+00  5.43437223e+00  5.44367694e+00  5.48003629e+00
  5.51643964e+00  5.51924652e+00  5.58148873e+00  5.65547684e+00
  5.72678265e+00  5.74337720e+00  5.82515715e+00  5.83958699e+00
  5.95168995e+00  5.95618513e+00  6.02944841e+00  6.05837900e+00
  6.10205801e+00  6.11683172e+00  6.15233005e+00  6.16873256e+00
  6.25751285e+00  6.35015545e+00  6.41928349e+00  6.42789188e+00
  6.43406029e+00  6.54191813e+00  6.60446808e+00  6.64425434e+00
  6.69512441e+00  6.78203800e+00  6.83042881e+00  6.87688544e+00
  6.88002020e+00  6.95594044e+00  7.02021287e+00  7.12210185e+00
  7.15380235e+00  7.22820912e+00  7.26317357e+00  7.28658242e+00
  7.31292875e+00  7.36866557e+00  7.43119891e+00  7.45371405e+00
  7.63893654e+00  7.69398860e+00  7.82702011e+00  7.90916617e+00
  8.03209448e+00  8.37716060e+00  1.12696366e+01  1.31171518e+01
  1.33293395e+01  1.41071019e+01  1.59272906e+01  1.75561270e+01]
    CPU time for vj and vk   3329.91 sec, wall time    104.39 sec
E1 = -2438.126015679036  E_coul = 1045.3484266118535
cycle= 1 E= -533.921695076603  delta_E= 4.87  |g|= 1.02  |ddm|=    9
    CPU time for cycle= 1   3332.72 sec, wall time    104.67 sec
diis-norm(errvec)=4.60719
diis-c [-21.2262311   1.       ]
  HOMO = -0.0492364492463756  LUMO = -0.00588480856810203
  mo_energy =
[-2.06038149e+01 -2.05982282e+01 -2.02413556e+01 -1.16708105e+01
 -1.14491073e+01 -1.14461749e+01 -2.45866525e+00 -2.45745305e+00
 -2.44472701e+00 -2.44471763e+00 -2.44175992e+00 -2.44127194e+00
 -2.40440055e+00 -2.40395985e+00 -2.40330302e+00 -2.40269123e+00
 -2.39081787e+00 -2.39080498e+00 -2.38853877e+00 -2.38609861e+00
 -2.37896268e+00 -2.37796588e+00 -2.33308742e+00 -2.33209801e+00
 -2.33116437e+00 -2.32815404e+00 -2.27245451e+00 -2.26356576e+00
 -2.23889488e+00 -2.23807796e+00 -2.21118232e+00 -2.19819208e+00
 -1.68823818e+00 -1.50482287e+00 -1.41927200e+00 -1.19925237e+00
 -1.03374905e+00 -9.29909579e-01 -8.74229758e-01 -8.13672056e-01
 -7.82793376e-01 -7.15729057e-01 -7.01159575e-01 -6.32272499e-01
 -6.14204043e-01 -5.82569376e-01 -5.32346065e-01 -4.53902963e-01
 -4.10252420e-01 -2.31840189e-01 -2.17316789e-01 -2.09001716e-01
 -1.81314328e-01 -1.49363892e-01 -1.27534910e-01 -1.12720684e-01
 -1.01484210e-01 -9.69002747e-02 -9.16632750e-02 -8.93826657e-02
 -5.34523573e-02 -4.92364492e-02 -5.88480857e-03  1.32213113e-02
  1.73367325e-02  1.91875705e-02  1.94060555e-02  2.35470757e-02
  2.58416525e-02  2.74969598e-02  3.04231727e-02  3.30222190e-02
  3.37265074e-02  3.68134602e-02  3.94444509e-02  4.16862746e-02
  4.30292347e-02  4.50064126e-02  4.68049436e-02  4.83562771e-02
  5.09209493e-02  5.29360965e-02  5.48442705e-02  5.57355306e-02
  5.92135014e-02  6.15817376e-02  6.21979160e-02  6.45880256e-02
  6.64749755e-02  6.66443516e-02  6.95558977e-02  7.07872232e-02
  7.13975872e-02  7.29021526e-02  7.38483426e-02  7.42841962e-02
  7.66189148e-02  7.73648196e-02  7.77882750e-02  8.23874289e-02
  8.32717701e-02  8.42041750e-02  8.64733406e-02  8.74385945e-02
  8.83069951e-02  8.88919915e-02  8.99313437e-02  9.04217974e-02
  9.39642301e-02  9.41823260e-02  9.54491137e-02  9.62792449e-02
  9.70450829e-02  1.00941265e-01  1.02297412e-01  1.02962924e-01
  1.03646818e-01  1.04565259e-01  1.07073725e-01  1.08040405e-01
  1.08500580e-01  1.10127095e-01  1.10730264e-01  1.12959169e-01
  1.17189608e-01  1.17767414e-01  1.18056366e-01  1.20378550e-01
  1.21600071e-01  1.23441316e-01  1.23892653e-01  1.24390531e-01
  1.25209058e-01  1.27205400e-01  1.28272675e-01  1.32365046e-01
  1.32577241e-01  1.33001181e-01  1.34614454e-01  1.36701692e-01
  1.37229446e-01  1.38922016e-01  1.39091293e-01  1.41529191e-01
  1.44835102e-01  1.45205098e-01  1.46168746e-01  1.47004310e-01
  1.49458313e-01  1.50543745e-01  1.51006795e-01  1.52944947e-01
  1.55312970e-01  1.57615653e-01  1.58705636e-01  1.60541435e-01
  1.62190273e-01  1.64607131e-01  1.65344504e-01  1.67374407e-01
  1.71412913e-01  1.75433966e-01  1.77127530e-01  1.78247767e-01
  1.79272190e-01  1.81710874e-01  1.83161511e-01  1.85857685e-01
  1.86912389e-01  1.89124084e-01  1.92024934e-01  1.92680209e-01
  1.93977791e-01  1.96339655e-01  1.96953119e-01  1.98566429e-01
  1.99913876e-01  2.00352103e-01  2.01958002e-01  2.04837915e-01
  2.05079255e-01  2.07621435e-01  2.09437222e-01  2.10474978e-01
  2.13172575e-01  2.14453543e-01  2.18728546e-01  2.19624264e-01
  2.20398011e-01  2.21374045e-01  2.23354321e-01  2.27333900e-01
  2.29552970e-01  2.30191457e-01  2.31462022e-01  2.32526046e-01
  2.33952738e-01  2.35774161e-01  2.37563600e-01  2.37791641e-01
  2.38727763e-01  2.39270498e-01  2.40699494e-01  2.44618351e-01
  2.45940425e-01  2.48812738e-01  2.49970823e-01  2.51657822e-01
  2.55649249e-01  2.58052005e-01  2.59394229e-01  2.60154889e-01
  2.60714781e-01  2.62025837e-01  2.65448339e-01  2.67588191e-01
  2.70179421e-01  2.71806545e-01  2.74709264e-01  2.78628227e-01
  2.82070386e-01  2.83014827e-01  2.83520563e-01  2.85823395e-01
  2.86097151e-01  2.87789394e-01  2.89059254e-01  2.92008917e-01
  2.92118872e-01  2.99337722e-01  3.01026113e-01  3.04313333e-01
  3.06986002e-01  3.09365109e-01  3.10483209e-01  3.13653803e-01
  3.17292997e-01  3.18318475e-01  3.20129564e-01  3.20965495e-01
  3.23785813e-01  3.26309868e-01  3.27019095e-01  3.29048001e-01
  3.29881046e-01  3.32300766e-01  3.38051308e-01  3.41633545e-01
  3.42870216e-01  3.45905491e-01  3.48805251e-01  3.49037240e-01
  3.52662790e-01  3.54124997e-01  3.59271106e-01  3.64028209e-01
  3.64556114e-01  3.66079933e-01  3.67119170e-01  3.67762027e-01
  3.70460469e-01  3.71736272e-01  3.73439241e-01  3.73838843e-01
  3.80417712e-01  3.81743686e-01  3.85283888e-01  3.88167105e-01
  3.89339302e-01  3.90185243e-01  3.93864354e-01  3.96421018e-01
  3.98496072e-01  4.00541035e-01  4.01784329e-01  4.03631598e-01
  4.06656236e-01  4.11090443e-01  4.11233233e-01  4.12899571e-01
  4.13208820e-01  4.15189421e-01  4.17165150e-01  4.17327216e-01
  4.19156346e-01  4.22465146e-01  4.24581453e-01  4.25259104e-01
  4.27197652e-01  4.27871637e-01  4.30561698e-01  4.32131598e-01
  4.33139601e-01  4.33492468e-01  4.37580887e-01  4.39624078e-01
  4.41841316e-01  4.42961805e-01  4.45182608e-01  4.47729944e-01
  4.48707072e-01  4.52604563e-01  4.56257368e-01  4.57124929e-01
  4.58109760e-01  4.62000287e-01  4.62571026e-01  4.65309272e-01
  4.67093477e-01  4.68011452e-01  4.70493239e-01  4.70748882e-01
  4.74488549e-01  4.76384121e-01  4.77043521e-01  4.78148812e-01
  4.79931940e-01  4.81246372e-01  4.82758036e-01  4.84945234e-01
  4.85959881e-01  4.86807148e-01  4.88028674e-01  4.89423067e-01
  4.90168957e-01  4.90878199e-01  4.92725936e-01  4.93689831e-01
  4.94226702e-01  4.97600937e-01  4.98732832e-01  5.00651861e-01
  5.03275249e-01  5.03951401e-01  5.04505393e-01  5.08138394e-01
  5.08638806e-01  5.09314289e-01  5.10641421e-01  5.12796064e-01
  5.13132085e-01  5.16627990e-01  5.21905913e-01  5.23535484e-01
  5.25889792e-01  5.27396468e-01  5.28801157e-01  5.30090596e-01
  5.32356883e-01  5.34682737e-01  5.36126910e-01  5.36903229e-01
  5.38676125e-01  5.40979323e-01  5.42570907e-01  5.46235212e-01
  5.47252131e-01  5.49999732e-01  5.51592668e-01  5.55508432e-01
  5.58785753e-01  5.59476670e-01  5.60298128e-01  5.63052170e-01
  5.66202845e-01  5.68200658e-01  5.70015326e-01  5.71417323e-01
  5.72882013e-01  5.74079763e-01  5.77620054e-01  5.78785845e-01
  5.79369516e-01  5.80611933e-01  5.82359238e-01  5.83645172e-01
  5.84426647e-01  5.85846679e-01  5.90158419e-01  5.93399247e-01
  5.94581753e-01  6.00020088e-01  6.01450571e-01  6.03172357e-01
  6.03752031e-01  6.06938389e-01  6.11012187e-01  6.12608422e-01
  6.14788646e-01  6.15451069e-01  6.16985285e-01  6.18486203e-01
  6.19926527e-01  6.20895456e-01  6.22774387e-01  6.25090184e-01
  6.29533251e-01  6.30206563e-01  6.31966436e-01  6.34128427e-01
  6.35365146e-01  6.35999154e-01  6.36697217e-01  6.41474828e-01
  6.43188767e-01  6.44193151e-01  6.46216197e-01  6.48688696e-01
  6.52172612e-01  6.52507847e-01  6.56774318e-01  6.58356778e-01
  6.60868715e-01  6.63469060e-01  6.67162678e-01  6.69930370e-01
  6.70511482e-01  6.72193070e-01  6.74613492e-01  6.78620286e-01
  6.79738149e-01  6.84538813e-01  6.87476837e-01  6.88511316e-01
  6.92061871e-01  6.93105135e-01  6.95509907e-01  6.97103740e-01
  6.99995106e-01  7.00156689e-01  7.01427483e-01  7.06280144e-01
  7.09052070e-01  7.09608385e-01  7.12020804e-01  7.14968735e-01
  7.18275127e-01  7.23100569e-01  7.23754172e-01  7.27466676e-01
  7.30599017e-01  7.33211746e-01  7.33906505e-01  7.37732336e-01
  7.43669623e-01  7.45232434e-01  7.48812456e-01  7.50771903e-01
  7.53223381e-01  7.55893128e-01  7.56538965e-01  7.58772919e-01
  7.60213406e-01  7.64083871e-01  7.67602382e-01  7.68183456e-01
  7.71485870e-01  7.72811338e-01  7.73679019e-01  7.75177650e-01
  7.78923216e-01  7.81178726e-01  7.82148205e-01  7.84175925e-01
  7.87325045e-01  7.89142190e-01  7.92880261e-01  7.96658720e-01
  7.97863994e-01  7.98896418e-01  8.02707532e-01  8.05786651e-01
  8.07152085e-01  8.08179590e-01  8.11977294e-01  8.14194442e-01
  8.17290549e-01  8.19061510e-01  8.20012617e-01  8.21778278e-01
  8.22266426e-01  8.25313333e-01  8.25950816e-01  8.28911601e-01
  8.30286246e-01  8.31127130e-01  8.33658339e-01  8.37696159e-01
  8.39996730e-01  8.41641331e-01  8.43501306e-01  8.46412285e-01
  8.49317205e-01  8.51422534e-01  8.52522303e-01  8.54807662e-01
  8.56599995e-01  8.60274651e-01  8.62258524e-01  8.64364914e-01
  8.67626912e-01  8.68422631e-01  8.69786079e-01  8.70639859e-01
  8.74197690e-01  8.75903356e-01  8.77551947e-01  8.79453429e-01
  8.82223662e-01  8.85431874e-01  8.87094866e-01  8.92321717e-01
  8.94827320e-01  8.97370219e-01  8.99812988e-01  9.01427202e-01
  9.04350528e-01  9.05569458e-01  9.06957677e-01  9.08675673e-01
  9.10595228e-01  9.10982500e-01  9.12977085e-01  9.13968455e-01
  9.16754727e-01  9.17042073e-01  9.19326098e-01  9.21346856e-01
  9.24736374e-01  9.27457541e-01  9.28492341e-01  9.31041531e-01
  9.32269394e-01  9.34771247e-01  9.37446785e-01  9.39577150e-01
  9.40827139e-01  9.42981848e-01  9.46938665e-01  9.49082302e-01
  9.50219506e-01  9.51980183e-01  9.56786052e-01  9.58247807e-01
  9.59823991e-01  9.62014418e-01  9.63141781e-01  9.66343860e-01
  9.67582926e-01  9.69349086e-01  9.72315047e-01  9.73387333e-01
  9.75098704e-01  9.75614663e-01  9.79847157e-01  9.80507836e-01
  9.83120578e-01  9.84621424e-01  9.87755137e-01  9.88297648e-01
  9.89482137e-01  9.90775848e-01  9.92765768e-01  9.93401830e-01
  9.95832291e-01  9.98046311e-01  9.98589044e-01  9.99614798e-01
  1.00226391e+00  1.00523395e+00  1.00613388e+00  1.00885549e+00
  1.01116036e+00  1.01181145e+00  1.01339558e+00  1.01486076e+00
  1.01793249e+00  1.01873204e+00  1.02143892e+00  1.02253341e+00
  1.02372162e+00  1.02574885e+00  1.02740810e+00  1.03035052e+00
  1.03361298e+00  1.03708657e+00  1.03932977e+00  1.04096403e+00
  1.04468706e+00  1.04646798e+00  1.05086997e+00  1.05110600e+00
  1.05300038e+00  1.05682345e+00  1.05753430e+00  1.06062341e+00
  1.06269867e+00  1.06525153e+00  1.06657253e+00  1.06835039e+00
  1.07068172e+00  1.07363350e+00  1.07414842e+00  1.07774030e+00
  1.07837678e+00  1.08074630e+00  1.08344391e+00  1.08440823e+00
  1.08666559e+00  1.08776930e+00  1.08917957e+00  1.09028748e+00
  1.09155891e+00  1.09470480e+00  1.09574839e+00  1.09857954e+00
  1.10084537e+00  1.10356208e+00  1.10430022e+00  1.10587104e+00
  1.10778942e+00  1.10878305e+00  1.11167514e+00  1.11311634e+00
  1.11406422e+00  1.11730854e+00  1.11790992e+00  1.12203707e+00
  1.12312923e+00  1.12409009e+00  1.12635521e+00  1.13287324e+00
  1.13491824e+00  1.13615611e+00  1.14015022e+00  1.14259893e+00
  1.14433835e+00  1.14593080e+00  1.14832879e+00  1.15190589e+00
  1.15339272e+00  1.15576454e+00  1.15933539e+00  1.16123985e+00
  1.16221220e+00  1.16296636e+00  1.16479399e+00  1.16865304e+00
  1.16983944e+00  1.17129054e+00  1.17583559e+00  1.17760791e+00
  1.17906547e+00  1.17999065e+00  1.18524542e+00  1.18683971e+00
  1.18800704e+00  1.18935809e+00  1.19048416e+00  1.19533655e+00
  1.19787484e+00  1.19901761e+00  1.19960886e+00  1.20088385e+00
  1.20358559e+00  1.20664521e+00  1.20755993e+00  1.20945392e+00
  1.21090018e+00  1.21358179e+00  1.21627604e+00  1.22236582e+00
  1.22414086e+00  1.22680940e+00  1.22856174e+00  1.23003190e+00
  1.23056504e+00  1.23321816e+00  1.23500384e+00  1.23789561e+00
  1.23944279e+00  1.24667259e+00  1.24816874e+00  1.25086000e+00
  1.25183568e+00  1.25503178e+00  1.25555515e+00  1.26030610e+00
  1.26278276e+00  1.26443034e+00  1.27022118e+00  1.27146008e+00
  1.27205522e+00  1.27498075e+00  1.27736805e+00  1.27839490e+00
  1.28000840e+00  1.28503643e+00  1.28678575e+00  1.28766860e+00
  1.28916734e+00  1.29150741e+00  1.29626050e+00  1.29887925e+00
  1.30155691e+00  1.30496549e+00  1.30791649e+00  1.30812730e+00
  1.31087530e+00  1.31328290e+00  1.31464584e+00  1.31597734e+00
  1.32145928e+00  1.32331095e+00  1.32680958e+00  1.32765162e+00
  1.32940634e+00  1.33369805e+00  1.33472932e+00  1.34372880e+00
  1.34382340e+00  1.34570783e+00  1.34918540e+00  1.35019414e+00
  1.35310175e+00  1.35419802e+00  1.35986235e+00  1.36463655e+00
  1.36621190e+00  1.36807381e+00  1.37032795e+00  1.37067301e+00
  1.37121662e+00  1.37378783e+00  1.37571527e+00  1.37761192e+00
  1.38292103e+00  1.38531508e+00  1.39133109e+00  1.39403106e+00
  1.39829253e+00  1.40165187e+00  1.40454812e+00  1.40703108e+00
  1.41078075e+00  1.41412735e+00  1.41912805e+00  1.41991178e+00
  1.42166655e+00  1.42649484e+00  1.42852955e+00  1.42915573e+00
  1.43144872e+00  1.43556296e+00  1.44406631e+00  1.44421577e+00
  1.44636952e+00  1.45051537e+00  1.45596630e+00  1.45793976e+00
  1.46328229e+00  1.46423304e+00  1.46686751e+00  1.46943899e+00
  1.47143344e+00  1.47681160e+00  1.48100713e+00  1.48610371e+00
  1.49202797e+00  1.49344292e+00  1.49896541e+00  1.50242504e+00
  1.50426532e+00  1.51066356e+00  1.51240877e+00  1.51323961e+00
  1.52079511e+00  1.52229326e+00  1.52724803e+00  1.53646837e+00
  1.53856716e+00  1.54226220e+00  1.54565759e+00  1.54948632e+00
  1.55605472e+00  1.55764314e+00  1.56249420e+00  1.56365975e+00
  1.56630215e+00  1.56974127e+00  1.57153449e+00  1.57833711e+00
  1.58275260e+00  1.58681112e+00  1.58749963e+00  1.59064435e+00
  1.59986980e+00  1.60209786e+00  1.60372230e+00  1.61380110e+00
  1.61515910e+00  1.61918195e+00  1.62431283e+00  1.62809064e+00
  1.63091853e+00  1.63888469e+00  1.64366350e+00  1.64999564e+00
  1.65824807e+00  1.66080381e+00  1.66589651e+00  1.67096569e+00
  1.67525436e+00  1.67716603e+00  1.67920127e+00  1.69420035e+00
  1.69912960e+00  1.70502112e+00  1.70857718e+00  1.71252910e+00
  1.71716525e+00  1.71992196e+00  1.73321866e+00  1.74056062e+00
  1.74208593e+00  1.75144002e+00  1.75380161e+00  1.75684261e+00
  1.77915669e+00  1.78558470e+00  1.79647794e+00  1.82630779e+00
  1.83543040e+00  1.84762962e+00  1.85538642e+00  1.87130124e+00
  1.87349498e+00  1.87947054e+00  1.91193553e+00  1.93675085e+00
  1.94343346e+00  1.99741622e+00  2.02137550e+00  2.07734305e+00
  2.13461640e+00  2.18211354e+00  2.24646404e+00  2.26770261e+00
  2.29403521e+00  2.35590821e+00  2.41573393e+00  2.44948729e+00
  2.48056128e+00  2.49537965e+00  2.52679609e+00  2.55127280e+00
  2.59489849e+00  2.63898026e+00  2.67963689e+00  2.70137308e+00
  2.77766347e+00  2.79601294e+00  2.80557997e+00  2.84868164e+00
  2.85928218e+00  2.88084011e+00  2.96548493e+00  2.98972473e+00
  3.02055970e+00  3.07511604e+00  3.08260521e+00  3.13140415e+00
  3.14217931e+00  3.16540058e+00  3.17465796e+00  3.23236854e+00
  3.24975469e+00  3.25827296e+00  3.27952124e+00  3.28857636e+00
  3.30430351e+00  3.33411269e+00  3.33592681e+00  3.34689166e+00
  3.39924394e+00  3.41948360e+00  3.42707239e+00  3.43100057e+00
  3.43422387e+00  3.44123940e+00  3.49058019e+00  3.49286441e+00
  3.49764426e+00  3.51163764e+00  3.52199198e+00  3.54127181e+00
  3.56476691e+00  3.56900673e+00  3.58510644e+00  3.60999348e+00
  3.61377913e+00  3.62034041e+00  3.64468972e+00  3.66519750e+00
  3.66690134e+00  3.67175458e+00  3.70233532e+00  3.73322877e+00
  3.73934972e+00  3.75161016e+00  3.76667840e+00  3.78783956e+00
  3.82356233e+00  3.82534146e+00  3.82890905e+00  3.84715231e+00
  3.85918605e+00  3.87075078e+00  3.91107994e+00  3.92936400e+00
  3.93989062e+00  3.95967628e+00  3.99390127e+00  4.02128939e+00
  4.03329241e+00  4.05318319e+00  4.09154503e+00  4.13630929e+00
  4.20634552e+00  4.22655251e+00  4.24722137e+00  4.25778074e+00
  4.28115988e+00  4.30891298e+00  4.31351028e+00  4.36291454e+00
  4.37403563e+00  4.38877325e+00  4.39676969e+00  4.42009416e+00
  4.47561534e+00  4.49145068e+00  4.49211428e+00  4.62261332e+00
  4.64657496e+00  4.66191972e+00  4.78644022e+00  4.79171640e+00
  4.82889122e+00  4.86720220e+00  4.93342831e+00  4.96914988e+00
  4.98333415e+00  5.02715993e+00  5.06131870e+00  5.12481133e+00
  5.21270784e+00  5.30096074e+00  5.30834694e+00  5.36026015e+00
  5.40732531e+00  5.49212860e+00  5.49455224e+00  5.49928462e+00
  5.62133618e+00  5.68544912e+00  5.69547207e+00  5.74707591e+00
  5.75430506e+00  5.78213375e+00  5.82360071e+00  5.92794667e+00
  5.96828076e+00  5.99818509e+00  6.05892345e+00  6.07882000e+00
  6.11178041e+00  6.16745758e+00  6.19997590e+00  6.24908406e+00
  6.26043838e+00  6.37958581e+00  6.42464456e+00  6.45315468e+00
  6.49526254e+00  6.60115410e+00  6.64015789e+00  6.76584769e+00
  6.84481893e+00  6.87351303e+00  6.92911268e+00  7.11742376e+00
  7.14569700e+00  7.17302815e+00  7.22575831e+00  7.23877887e+00
  7.27842740e+00  7.31173809e+00  7.38490974e+00  7.38605206e+00
  7.45609968e+00  7.55687690e+00  7.62423553e+00  7.68264248e+00
  7.78432293e+00  7.80531211e+00  8.07536104e+00  8.10372209e+00
  8.15192302e+00  8.51018593e+00  1.13319714e+01  1.31798142e+01
  1.33996883e+01  1.41092825e+01  1.58412394e+01  1.76185147e+01]
    CPU time for vj and vk   3299.74 sec, wall time    103.39 sec
E1 = -2422.404788125476  E_coul = 1029.630258232053
cycle= 2 E= -533.918635902844  delta_E= 0.00306  |g|= 0.821  |ddm|= 10.5
    CPU time for cycle= 2   3304.55 sec, wall time    103.74 sec
diis-norm(errvec)=5.24565
diis-c [-2.45436866  0.53606383  0.46393617]
  HOMO = -0.122873015731696  LUMO = -0.044164303172823
  mo_energy =
[-2.06519063e+01 -2.06476319e+01 -2.05750166e+01 -1.15355677e+01
 -1.13618376e+01 -1.13602901e+01 -2.46848284e+00 -2.46557787e+00
 -2.46255867e+00 -2.46244609e+00 -2.45929454e+00 -2.45913704e+00
 -2.45876153e+00 -2.45546350e+00 -2.45478663e+00 -2.45472314e+00
 -2.45469575e+00 -2.45221946e+00 -2.45194893e+00 -2.44673990e+00
 -2.44646378e+00 -2.44319459e+00 -2.44311373e+00 -2.43433642e+00
 -2.43411637e+00 -2.43121018e+00 -2.43095845e+00 -2.42368556e+00
 -2.42357299e+00 -2.41058183e+00 -2.41056057e+00 -2.40781384e+00
 -1.67178026e+00 -1.51213935e+00 -1.49768324e+00 -1.16887291e+00
 -1.01779229e+00 -9.24320666e-01 -8.61188260e-01 -8.26196399e-01
 -7.77488562e-01 -7.38719346e-01 -7.12476947e-01 -7.04105443e-01
 -6.28771828e-01 -6.11886722e-01 -5.55976634e-01 -5.44837690e-01
 -5.28574114e-01 -3.25280087e-01 -2.85282597e-01 -2.82008468e-01
 -2.33171345e-01 -2.13141929e-01 -2.07878547e-01 -1.98171945e-01
 -1.59681279e-01 -1.56937542e-01 -1.56129597e-01 -1.51885052e-01
 -1.23204333e-01 -1.22873016e-01 -4.41643032e-02 -1.59615529e-02
 -1.43974770e-02 -9.99789155e-03 -8.74381810e-03 -1.80605045e-03
 -4.59376014e-04  5.66692944e-03  7.05193308e-03  8.37650391e-03
  9.62529997e-03  1.95331130e-02  2.04593376e-02  2.24786334e-02
  2.31932901e-02  2.60085914e-02  2.79549403e-02  2.91705718e-02
  3.25893091e-02  4.06023786e-02  4.15551950e-02  4.26418285e-02
  4.41530296e-02  4.69714388e-02  4.81911204e-02  5.02682195e-02
  5.29903428e-02  5.38373683e-02  5.63039127e-02  5.67204846e-02
  5.82801595e-02  5.98441645e-02  6.11591367e-02  6.15667623e-02
  6.22295141e-02  6.32983055e-02  6.46472422e-02  6.60370135e-02
  6.63115364e-02  6.69377458e-02  6.86117257e-02  7.06995043e-02
  7.09524521e-02  7.47969020e-02  7.54037152e-02  7.78360585e-02
  7.96471401e-02  7.99329405e-02  8.08720674e-02  8.19230723e-02
  8.35034171e-02  8.65817890e-02  8.82771429e-02  9.03597281e-02
  9.31014639e-02  9.38572011e-02  9.51961414e-02  9.67682662e-02
  9.75726823e-02  9.77716680e-02  9.89013951e-02  1.02381370e-01
  1.02415818e-01  1.03409347e-01  1.03835401e-01  1.04327835e-01
  1.05906398e-01  1.06734150e-01  1.07522991e-01  1.08978327e-01
  1.09340496e-01  1.12708284e-01  1.13462905e-01  1.14293640e-01
  1.16161467e-01  1.19352665e-01  1.22377432e-01  1.24327116e-01
  1.25762651e-01  1.26078169e-01  1.26230176e-01  1.28282703e-01
  1.28766264e-01  1.29118801e-01  1.29671172e-01  1.31211922e-01
  1.31425680e-01  1.31953990e-01  1.34273148e-01  1.36624729e-01
  1.37073321e-01  1.39105006e-01  1.39646648e-01  1.40216965e-01
  1.44064914e-01  1.44866113e-01  1.45581098e-01  1.48051142e-01
  1.49000653e-01  1.51883566e-01  1.55361970e-01  1.56425636e-01
  1.57593305e-01  1.59718202e-01  1.61284377e-01  1.61853309e-01
  1.63368461e-01  1.65119405e-01  1.68456091e-01  1.69335838e-01
  1.70149762e-01  1.72713627e-01  1.72951122e-01  1.74643241e-01
  1.75657220e-01  1.79721041e-01  1.80842991e-01  1.83094843e-01
  1.84948268e-01  1.85587659e-01  1.89008453e-01  1.89438365e-01
  1.92107949e-01  1.93341055e-01  1.93700998e-01  1.95651194e-01
  1.98464151e-01  2.01303602e-01  2.01660805e-01  2.02519627e-01
  2.03695048e-01  2.05664581e-01  2.06092577e-01  2.07581117e-01
  2.10775400e-01  2.13566756e-01  2.13792051e-01  2.15061059e-01
  2.17293894e-01  2.19255864e-01  2.20270422e-01  2.20599861e-01
  2.22399750e-01  2.23008095e-01  2.24511731e-01  2.25987605e-01
  2.28230191e-01  2.28985912e-01  2.29858941e-01  2.30478025e-01
  2.31308528e-01  2.31667980e-01  2.33628376e-01  2.35469420e-01
  2.39308119e-01  2.43402896e-01  2.44274386e-01  2.45331287e-01
  2.45744173e-01  2.47338326e-01  2.51463549e-01  2.51795202e-01
  2.53627518e-01  2.53945573e-01  2.56982712e-01  2.60186453e-01
  2.62484806e-01  2.63619771e-01  2.67543562e-01  2.68980764e-01
  2.69388072e-01  2.70359354e-01  2.73716760e-01  2.75295941e-01
  2.77019628e-01  2.81092367e-01  2.81507363e-01  2.87235371e-01
  2.89299952e-01  2.90419924e-01  2.93694199e-01  2.95316417e-01
  2.98510174e-01  2.98902922e-01  3.02409302e-01  3.04000068e-01
  3.07804813e-01  3.09892345e-01  3.12044894e-01  3.16602415e-01
  3.17539409e-01  3.19042438e-01  3.21039989e-01  3.23533070e-01
  3.26853142e-01  3.27595072e-01  3.30058445e-01  3.31829402e-01
  3.35126928e-01  3.36229347e-01  3.37577414e-01  3.41180575e-01
  3.41920633e-01  3.42182504e-01  3.44501636e-01  3.45570778e-01
  3.46966143e-01  3.49363161e-01  3.51515430e-01  3.55687967e-01
  3.57212252e-01  3.58222116e-01  3.59299104e-01  3.60193382e-01
  3.60699456e-01  3.63098038e-01  3.65908489e-01  3.66452536e-01
  3.69601551e-01  3.71843474e-01  3.75065887e-01  3.79770102e-01
  3.81271630e-01  3.84353027e-01  3.85093273e-01  3.85614230e-01
  3.88407193e-01  3.89895631e-01  3.90162296e-01  3.92558441e-01
  3.95344332e-01  4.00222330e-01  4.00656936e-01  4.04778838e-01
  4.08135494e-01  4.08552873e-01  4.11386340e-01  4.14657245e-01
  4.15337145e-01  4.16785956e-01  4.17386654e-01  4.18903560e-01
  4.20438522e-01  4.21328842e-01  4.23927585e-01  4.26924544e-01
  4.27618145e-01  4.30791470e-01  4.32069027e-01  4.34725621e-01
  4.37498131e-01  4.38690567e-01  4.40029703e-01  4.40164816e-01
  4.40667368e-01  4.44308391e-01  4.46197097e-01  4.47178558e-01
  4.48083537e-01  4.49896802e-01  4.50768894e-01  4.52333063e-01
  4.53819396e-01  4.56885943e-01  4.58651424e-01  4.58919935e-01
  4.59678089e-01  4.61335441e-01  4.62469223e-01  4.63110453e-01
  4.64648283e-01  4.66466376e-01  4.66979951e-01  4.68317900e-01
  4.69446689e-01  4.70094497e-01  4.72650524e-01  4.74868980e-01
  4.78175654e-01  4.80407853e-01  4.82323807e-01  4.83749384e-01
  4.84659348e-01  4.87196426e-01  4.88274928e-01  4.88496394e-01
  4.89873671e-01  4.91747324e-01  4.96780298e-01  4.97823325e-01
  4.98504279e-01  5.00048455e-01  5.00789459e-01  5.02958311e-01
  5.05761349e-01  5.08624374e-01  5.10166889e-01  5.12079487e-01
  5.13000222e-01  5.14879242e-01  5.16164505e-01  5.17225102e-01
  5.17987211e-01  5.19035986e-01  5.21376699e-01  5.22647751e-01
  5.24885922e-01  5.24988281e-01  5.28413851e-01  5.29182066e-01
  5.32134368e-01  5.34128121e-01  5.35530695e-01  5.36979694e-01
  5.37663838e-01  5.39426761e-01  5.41632758e-01  5.42726984e-01
  5.44347548e-01  5.44781576e-01  5.46972518e-01  5.50068218e-01
  5.51675044e-01  5.53144925e-01  5.55422406e-01  5.56285886e-01
  5.57284441e-01  5.58301268e-01  5.62671626e-01  5.66150533e-01
  5.68500007e-01  5.70544093e-01  5.71816022e-01  5.73041161e-01
  5.74701701e-01  5.83606758e-01  5.88246195e-01  5.93210668e-01
  5.93644080e-01  5.95031347e-01  5.98251083e-01  5.99315365e-01
  6.00571674e-01  6.02704216e-01  6.03735060e-01  6.05502674e-01
  6.09024756e-01  6.10805527e-01  6.14048050e-01  6.16461596e-01
  6.20482989e-01  6.22177062e-01  6.24029087e-01  6.24265864e-01
  6.27330368e-01  6.29153042e-01  6.31182823e-01  6.35974569e-01
  6.39458514e-01  6.40511626e-01  6.41975109e-01  6.42522824e-01
  6.44172758e-01  6.48065957e-01  6.49706819e-01  6.51609343e-01
  6.53394001e-01  6.54789893e-01  6.59903554e-01  6.60503648e-01
  6.62230734e-01  6.62505855e-01  6.62723368e-01  6.64973731e-01
  6.68478367e-01  6.70067257e-01  6.74096266e-01  6.76835551e-01
  6.79705131e-01  6.83997441e-01  6.84113824e-01  6.89562933e-01
  6.89783375e-01  6.91544745e-01  6.94165597e-01  6.97202553e-01
  6.98955917e-01  6.99454479e-01  7.01151785e-01  7.05274982e-01
  7.06142140e-01  7.10178446e-01  7.10487385e-01  7.14038089e-01
  7.15336104e-01  7.17380677e-01  7.19599355e-01  7.22659371e-01
  7.24594414e-01  7.28336478e-01  7.29184936e-01  7.31780853e-01
  7.32940247e-01  7.34537407e-01  7.37855672e-01  7.39965663e-01
  7.41363981e-01  7.42437392e-01  7.42951642e-01  7.47222327e-01
  7.49806515e-01  7.50058292e-01  7.51802367e-01  7.54599832e-01
  7.56751290e-01  7.57753329e-01  7.59978536e-01  7.64621954e-01
  7.66942241e-01  7.69677794e-01  7.70475366e-01  7.73116061e-01
  7.75969889e-01  7.81390787e-01  7.83619961e-01  7.84542902e-01
  7.86516322e-01  7.88628831e-01  7.90377102e-01  7.92282821e-01
  7.94414691e-01  7.96237148e-01  7.97499722e-01  8.00102661e-01
  8.02800612e-01  8.04250526e-01  8.05676234e-01  8.07904178e-01
  8.09500416e-01  8.12811452e-01  8.15457508e-01  8.18545515e-01
  8.20944010e-01  8.24745766e-01  8.26803716e-01  8.31063401e-01
  8.33419826e-01  8.34361588e-01  8.37227572e-01  8.39012507e-01
  8.41496728e-01  8.46337035e-01  8.47305318e-01  8.49767203e-01
  8.50633803e-01  8.52684592e-01  8.53585894e-01  8.55098623e-01
  8.55170071e-01  8.56678713e-01  8.57426779e-01  8.60170638e-01
  8.64360128e-01  8.65766931e-01  8.70382602e-01  8.71667963e-01
  8.74470597e-01  8.77363338e-01  8.78335939e-01  8.78619079e-01
  8.79026718e-01  8.81331244e-01  8.83155070e-01  8.84246857e-01
  8.87798646e-01  8.89060892e-01  8.90188405e-01  8.91861159e-01
  8.92562336e-01  8.94998816e-01  8.98658327e-01  8.99029639e-01
  9.01841235e-01  9.03218509e-01  9.04650555e-01  9.06631112e-01
  9.08937955e-01  9.09273786e-01  9.11365916e-01  9.13642977e-01
  9.13921725e-01  9.16620349e-01  9.19413602e-01  9.21157587e-01
  9.28526339e-01  9.29181364e-01  9.29446256e-01  9.32227860e-01
  9.32825075e-01  9.33326051e-01  9.35356717e-01  9.36472624e-01
  9.38979946e-01  9.39483896e-01  9.40649059e-01  9.42743973e-01
  9.46343921e-01  9.46670397e-01  9.48390791e-01  9.50380019e-01
  9.53681386e-01  9.55437038e-01  9.59446209e-01  9.60560819e-01
  9.62163683e-01  9.62948156e-01  9.67617658e-01  9.72991539e-01
  9.73914451e-01  9.76153278e-01  9.76574964e-01  9.78814900e-01
  9.82967891e-01  9.84283391e-01  9.86497293e-01  9.87896195e-01
  9.88993394e-01  9.90598153e-01  9.91223710e-01  9.94399988e-01
  9.95666146e-01  9.97211437e-01  1.00046915e+00  1.00111839e+00
  1.00559342e+00  1.00688165e+00  1.00925196e+00  1.01071099e+00
  1.01213270e+00  1.01344535e+00  1.01553662e+00  1.01680301e+00
  1.02198135e+00  1.02292148e+00  1.02546970e+00  1.02710297e+00
  1.02794824e+00  1.02966702e+00  1.03406694e+00  1.03579986e+00
  1.03715728e+00  1.03939388e+00  1.04186155e+00  1.04279207e+00
  1.04486103e+00  1.04522344e+00  1.04692123e+00  1.04925870e+00
  1.05107262e+00  1.05255585e+00  1.05575880e+00  1.05735007e+00
  1.05826102e+00  1.06033189e+00  1.06186095e+00  1.06311067e+00
  1.06358087e+00  1.06488029e+00  1.06684354e+00  1.06996993e+00
  1.07027774e+00  1.07241039e+00  1.07556989e+00  1.07723609e+00
  1.07925195e+00  1.08088840e+00  1.08240029e+00  1.08609211e+00
  1.08654929e+00  1.08793234e+00  1.08922760e+00  1.09303040e+00
  1.09365277e+00  1.09500703e+00  1.09620393e+00  1.09977028e+00
  1.10349743e+00  1.10589498e+00  1.10747579e+00  1.10912062e+00
  1.11082145e+00  1.11258979e+00  1.11574788e+00  1.11732798e+00
  1.11997534e+00  1.12179250e+00  1.12689805e+00  1.12979224e+00
  1.13329611e+00  1.13603528e+00  1.13991705e+00  1.14158709e+00
  1.14282289e+00  1.14482151e+00  1.14771407e+00  1.15243497e+00
  1.15387316e+00  1.15609085e+00  1.15791070e+00  1.16024811e+00
  1.16190816e+00  1.16368281e+00  1.16732815e+00  1.16918849e+00
  1.17138833e+00  1.17277671e+00  1.17367451e+00  1.17549833e+00
  1.17661941e+00  1.17912304e+00  1.18078138e+00  1.18901695e+00
  1.19000233e+00  1.19113573e+00  1.19309184e+00  1.19565353e+00
  1.19910676e+00  1.20007045e+00  1.20052268e+00  1.20130348e+00
  1.20393012e+00  1.20700768e+00  1.21006759e+00  1.21437177e+00
  1.21800905e+00  1.22253823e+00  1.22558720e+00  1.22704704e+00
  1.22751473e+00  1.22951953e+00  1.23268820e+00  1.23305216e+00
  1.23486123e+00  1.23593755e+00  1.23806487e+00  1.24097214e+00
  1.24232591e+00  1.24391214e+00  1.24621103e+00  1.24868297e+00
  1.25207595e+00  1.25420505e+00  1.25934462e+00  1.26017672e+00
  1.26465686e+00  1.26738799e+00  1.26744872e+00  1.27390506e+00
  1.27578991e+00  1.27653120e+00  1.28046839e+00  1.28233952e+00
  1.28310922e+00  1.28555812e+00  1.28625707e+00  1.28889041e+00
  1.29026089e+00  1.29426684e+00  1.29563252e+00  1.29810917e+00
  1.30059782e+00  1.30326435e+00  1.30439310e+00  1.30498808e+00
  1.30918514e+00  1.31081410e+00  1.31421338e+00  1.31566751e+00
  1.31671482e+00  1.31868016e+00  1.31974345e+00  1.32189092e+00
  1.32337802e+00  1.32608524e+00  1.32876479e+00  1.32983378e+00
  1.33379894e+00  1.33628225e+00  1.33988076e+00  1.34552282e+00
  1.35202154e+00  1.35504136e+00  1.35580707e+00  1.36178446e+00
  1.36323918e+00  1.36650762e+00  1.36966341e+00  1.37192844e+00
  1.37492896e+00  1.37861763e+00  1.38785235e+00  1.38820897e+00
  1.39030338e+00  1.39392568e+00  1.39750954e+00  1.39907314e+00
  1.40126092e+00  1.40665492e+00  1.41423270e+00  1.41610966e+00
  1.41695012e+00  1.41947514e+00  1.42253421e+00  1.42376368e+00
  1.42769252e+00  1.42928269e+00  1.43400344e+00  1.44000586e+00
  1.44190091e+00  1.44640839e+00  1.44813008e+00  1.45353787e+00
  1.45455980e+00  1.46010785e+00  1.46270972e+00  1.46567715e+00
  1.46831304e+00  1.47096121e+00  1.47574372e+00  1.47801766e+00
  1.48094560e+00  1.48287609e+00  1.48484337e+00  1.48847591e+00
  1.49530487e+00  1.49635008e+00  1.50485837e+00  1.51704135e+00
  1.51763243e+00  1.51906730e+00  1.52203419e+00  1.52399372e+00
  1.52912507e+00  1.53136459e+00  1.54148088e+00  1.54465600e+00
  1.54812322e+00  1.55060430e+00  1.55466074e+00  1.56380700e+00
  1.56710656e+00  1.57089849e+00  1.57462332e+00  1.57945134e+00
  1.58599075e+00  1.59361685e+00  1.59773586e+00  1.60304804e+00
  1.60548341e+00  1.60947510e+00  1.62051535e+00  1.62881432e+00
  1.63297239e+00  1.64890661e+00  1.64977583e+00  1.66820182e+00
  1.67337348e+00  1.68808470e+00  1.70407536e+00  1.71295236e+00
  1.71666654e+00  1.71984096e+00  1.73067665e+00  1.76169495e+00
  1.76916816e+00  1.80297631e+00  1.86626926e+00  1.89687201e+00
  1.92258573e+00  1.96241343e+00  1.98228630e+00  1.99769077e+00
  2.06293578e+00  2.12117547e+00  2.16329971e+00  2.24530394e+00
  2.27996852e+00  2.34344523e+00  2.40511994e+00  2.42831663e+00
  2.47167439e+00  2.47800248e+00  2.50983527e+00  2.53680858e+00
  2.61034512e+00  2.66179364e+00  2.68540051e+00  2.70299140e+00
  2.77793260e+00  2.80202440e+00  2.81120432e+00  2.85696662e+00
  2.85999356e+00  2.88486545e+00  2.96633478e+00  2.98738391e+00
  3.04729362e+00  3.08917694e+00  3.10605134e+00  3.11991351e+00
  3.16229204e+00  3.18195390e+00  3.19000886e+00  3.20595864e+00
  3.27649713e+00  3.27856915e+00  3.30392292e+00  3.31119010e+00
  3.31606230e+00  3.32091398e+00  3.33149862e+00  3.36119463e+00
  3.39234864e+00  3.40346325e+00  3.41794827e+00  3.43186617e+00
  3.44261184e+00  3.45062929e+00  3.46058547e+00  3.46939808e+00
  3.48557453e+00  3.50766332e+00  3.51013315e+00  3.52031378e+00
  3.52140272e+00  3.54739125e+00  3.56013403e+00  3.56262524e+00
  3.56558394e+00  3.59541857e+00  3.60524056e+00  3.63162228e+00
  3.65073841e+00  3.65718825e+00  3.67943008e+00  3.68857918e+00
  3.69132467e+00  3.73092280e+00  3.73887602e+00  3.74655467e+00
  3.75777542e+00  3.76437907e+00  3.78810437e+00  3.81710605e+00
  3.83827953e+00  3.84038440e+00  3.87936609e+00  3.91034258e+00
  3.94039680e+00  3.95101174e+00  4.00997882e+00  4.02765781e+00
  4.04003307e+00  4.05613124e+00  4.07040934e+00  4.07942515e+00
  4.12540756e+00  4.14152137e+00  4.15646729e+00  4.18375782e+00
  4.23625654e+00  4.26880866e+00  4.28566037e+00  4.29058461e+00
  4.37360018e+00  4.38612697e+00  4.41058106e+00  4.42568402e+00
  4.49242123e+00  4.50337981e+00  4.50623827e+00  4.57544428e+00
  4.63859211e+00  4.66816170e+00  4.67342225e+00  4.73180162e+00
  4.77594981e+00  4.82069586e+00  4.82706857e+00  4.92775680e+00
  4.99916699e+00  5.03878155e+00  5.07220084e+00  5.12596802e+00
  5.17669117e+00  5.31018877e+00  5.31479585e+00  5.38002642e+00
  5.42215117e+00  5.48585791e+00  5.48820652e+00  5.51419130e+00
  5.57727682e+00  5.59941867e+00  5.60377536e+00  5.67055685e+00
  5.73760472e+00  5.74917257e+00  5.83113773e+00  5.87067401e+00
  5.97244687e+00  5.98265367e+00  6.07345168e+00  6.10180976e+00
  6.10664977e+00  6.12462359e+00  6.19317709e+00  6.19539677e+00
  6.26972178e+00  6.37699531e+00  6.43174106e+00  6.45247228e+00
  6.47518113e+00  6.58264061e+00  6.63275513e+00  6.71380574e+00
  6.79869020e+00  6.85179416e+00  6.89344302e+00  6.98132743e+00
  7.01143835e+00  7.03554467e+00  7.10137373e+00  7.20390861e+00
  7.22662301e+00  7.29463342e+00  7.34635736e+00  7.36082550e+00
  7.42747547e+00  7.47808432e+00  7.52588840e+00  7.53089614e+00
[...]
  2.89249416e+00  2.91383307e+00  2.99565250e+00  3.02486838e+00
  3.08137957e+00  3.12467469e+00  3.13913975e+00  3.15184639e+00
  3.19491898e+00  3.20438630e+00  3.21889071e+00  3.24094735e+00
  3.30677429e+00  3.31190053e+00  3.32455266e+00  3.33085361e+00
  3.33991968e+00  3.35081435e+00  3.36417974e+00  3.39996250e+00
  3.40543807e+00  3.42280519e+00  3.43666348e+00  3.45497202e+00
  3.46410071e+00  3.48038266e+00  3.48439122e+00  3.49066425e+00
  3.49751994e+00  3.52440602e+00  3.53374270e+00  3.54087772e+00
  3.54880434e+00  3.56642330e+00  3.57632173e+00  3.58107938e+00
  3.58756234e+00  3.62049014e+00  3.62866883e+00  3.64016653e+00
  3.67356728e+00  3.68480591e+00  3.70524707e+00  3.71364820e+00
  3.72086776e+00  3.75118700e+00  3.76272275e+00  3.77132409e+00
  3.79002490e+00  3.79513172e+00  3.82272049e+00  3.84635050e+00
  3.86924834e+00  3.87158133e+00  3.91010924e+00  3.94424183e+00
  3.97128868e+00  3.98252656e+00  4.04122207e+00  4.05760905e+00
  4.06966431e+00  4.08507972e+00  4.09587916e+00  4.10177649e+00
  4.15439179e+00  4.17376526e+00  4.18260568e+00  4.21635819e+00
  4.26559333e+00  4.29715014e+00  4.31213371e+00  4.32113626e+00
  4.40335030e+00  4.41601675e+00  4.44226816e+00  4.45580267e+00
  4.52211329e+00  4.53110367e+00  4.53625158e+00  4.60087088e+00
  4.67006215e+00  4.69626394e+00  4.70888544e+00  4.74961691e+00
  4.79649410e+00  4.84038288e+00  4.85305757e+00  4.95944797e+00
  5.02943808e+00  5.06716587e+00  5.10227114e+00  5.15603389e+00
  5.20213343e+00  5.33982558e+00  5.34516777e+00  5.41188427e+00
  5.45289152e+00  5.51244358e+00  5.51373548e+00  5.54587055e+00
  5.59458362e+00  5.62098759e+00  5.62882174e+00  5.69975812e+00
  5.76856005e+00  5.77748976e+00  5.86211933e+00  5.89524881e+00
  5.99977397e+00  6.01154980e+00  6.10521236e+00  6.13184561e+00
  6.13574544e+00  6.15650951e+00  6.21899750e+00  6.22426488e+00
  6.30142398e+00  6.40568941e+00  6.46158139e+00  6.48161193e+00
  6.50112153e+00  6.60887058e+00  6.66325275e+00  6.73935666e+00
  6.82104721e+00  6.87803888e+00  6.91814964e+00  6.99683585e+00
  7.02396979e+00  7.06131031e+00  7.13011039e+00  7.22506203e+00
  7.24735593e+00  7.31817758e+00  7.36348341e+00  7.37850480e+00
  7.44517373e+00  7.49023624e+00  7.54325883e+00  7.55070591e+00
  7.77039831e+00  7.78038626e+00  7.96125865e+00  8.02388174e+00
  8.11938401e+00  8.47161766e+00  1.13281400e+01  1.31854183e+01
  1.34053268e+01  1.41473654e+01  1.59447144e+01  1.76073015e+01]
    CPU time for vj and vk   2711.84 sec, wall time     85.00 sec
E1 = -2433.505620890296  E_coul = 1040.4149570418642
cycle= 49 E= -534.234769857852  delta_E= -5.28e-06  |g|= 0.000416  |ddm|= 0.0248
    CPU time for cycle= 49   2717.39 sec, wall time     85.36 sec
diis-norm(errvec)=0.00355899
diis-c [-9.76351876e-06  2.17647789e+00 -5.86306838e+00  3.20154547e+00
 -1.39719027e-01  4.80142039e+00 -2.11770652e-01 -1.97504569e+00
 -9.89840013e-01]
  HOMO = -0.114106792415343  LUMO = -0.0325394160108877
  mo_energy =
[-2.06463621e+01 -2.06461723e+01 -2.05764116e+01 -1.14479250e+01
 -1.13106606e+01 -1.13095977e+01 -2.45378938e+00 -2.45121189e+00
 -2.45113464e+00 -2.45071234e+00 -2.45012336e+00 -2.45008477e+00
 -2.44792166e+00 -2.44637490e+00 -2.44010331e+00 -2.43985672e+00
 -2.43788221e+00 -2.43754058e+00 -2.42841711e+00 -2.42783469e+00
 -2.42211027e+00 -2.42152752e+00 -2.42080898e+00 -2.42066820e+00
 -2.41872384e+00 -2.41858718e+00 -2.41760346e+00 -2.40145295e+00
 -2.39098373e+00 -2.38884023e+00 -2.38429859e+00 -2.38377534e+00
 -1.63730673e+00 -1.48364624e+00 -1.47069128e+00 -1.13125168e+00
 -9.85405314e-01 -8.97832426e-01 -8.32289352e-01 -8.04417316e-01
 -7.49759782e-01 -7.20206510e-01 -6.84205169e-01 -6.80305309e-01
 -6.12147464e-01 -5.86478123e-01 -5.39818509e-01 -5.25132666e-01
 -5.06663416e-01 -3.03142317e-01 -2.68572356e-01 -2.65154388e-01
 -2.22040798e-01 -1.99868414e-01 -1.92741966e-01 -1.82424401e-01
 -1.52015915e-01 -1.45690952e-01 -1.44992787e-01 -1.43349133e-01
 -1.16691861e-01 -1.14106792e-01 -3.25394160e-02 -3.65114905e-03
 -1.91382177e-03  2.42605559e-03  3.30001059e-03  9.69996045e-03
  1.17084413e-02  1.40180490e-02  1.57210969e-02  1.66361791e-02
  1.72550204e-02  2.56589087e-02  2.68387883e-02  3.04248140e-02
  3.09268574e-02  3.22070527e-02  3.32841319e-02  3.56213507e-02
  3.85635895e-02  4.34583673e-02  4.65898183e-02  4.69095757e-02
  4.71666567e-02  5.36510097e-02  5.37362870e-02  5.63924563e-02
  5.80100241e-02  6.03020764e-02  6.04799994e-02  6.14399465e-02
  6.19687377e-02  6.37083948e-02  6.53250741e-02  6.53991381e-02
  6.71882972e-02  6.78124883e-02  6.93042312e-02  7.03872957e-02
  7.05134832e-02  7.09499617e-02  7.10771763e-02  7.37077268e-02
  7.39628433e-02  7.87827135e-02  7.89006789e-02  8.24030554e-02
  8.32699570e-02  8.36889417e-02  8.42454509e-02  8.53869390e-02
  8.69073686e-02  8.97261882e-02  9.18514612e-02  9.52939370e-02
  9.79820046e-02  9.80447298e-02  9.82679812e-02  9.90136196e-02
  1.02181847e-01  1.02643976e-01  1.04708394e-01  1.05301134e-01
  1.05635524e-01  1.06149441e-01  1.06619146e-01  1.08743489e-01
  1.10108253e-01  1.10287286e-01  1.10497039e-01  1.15824113e-01
  1.16854938e-01  1.17510670e-01  1.18515525e-01  1.19289575e-01
  1.19536662e-01  1.24918144e-01  1.26467723e-01  1.28454941e-01
  1.28675277e-01  1.29413987e-01  1.31495244e-01  1.32735613e-01
  1.33651709e-01  1.34439912e-01  1.34990658e-01  1.35300757e-01
  1.35432685e-01  1.37703455e-01  1.40196759e-01  1.40465999e-01
  1.41556002e-01  1.41841222e-01  1.44446307e-01  1.44956138e-01
  1.47672791e-01  1.50464102e-01  1.52004933e-01  1.52468378e-01
  1.56038599e-01  1.58914501e-01  1.61977822e-01  1.65331215e-01
  1.65553419e-01  1.67243650e-01  1.69755384e-01  1.70451813e-01
  1.70781536e-01  1.73583280e-01  1.74064840e-01  1.76400601e-01
  1.77900448e-01  1.78514173e-01  1.81172153e-01  1.82074922e-01
  1.83189776e-01  1.85241004e-01  1.87278844e-01  1.87857289e-01
  1.93894500e-01  1.96635798e-01  1.98328357e-01  1.99801105e-01
  2.00807434e-01  2.02078896e-01  2.03996147e-01  2.05590242e-01
  2.06606240e-01  2.08212008e-01  2.08869327e-01  2.10967179e-01
  2.12044371e-01  2.13307690e-01  2.15689337e-01  2.18029085e-01
  2.19315187e-01  2.20834301e-01  2.23301403e-01  2.24249313e-01
  2.24938852e-01  2.26451062e-01  2.27097120e-01  2.28100060e-01
  2.28829597e-01  2.29861829e-01  2.31333188e-01  2.33071778e-01
  2.35038243e-01  2.37516295e-01  2.37802797e-01  2.39095997e-01
  2.40247276e-01  2.41000862e-01  2.44116281e-01  2.44546501e-01
  2.48306655e-01  2.51239151e-01  2.51613734e-01  2.54085205e-01
  2.55286708e-01  2.56800762e-01  2.59254383e-01  2.60353448e-01
  2.62130715e-01  2.64625538e-01  2.68187307e-01  2.70091809e-01
  2.70932079e-01  2.74474220e-01  2.77440501e-01  2.78000311e-01
  2.80978027e-01  2.81985999e-01  2.83471361e-01  2.85217264e-01
  2.86919946e-01  2.88533553e-01  2.92158922e-01  2.97016553e-01
  2.97400760e-01  2.98683645e-01  3.02742581e-01  3.05688419e-01
  3.09736884e-01  3.10203237e-01  3.14612317e-01  3.16737858e-01
  3.18773672e-01  3.22225858e-01  3.24657406e-01  3.24845802e-01
  3.27973385e-01  3.29360229e-01  3.31733670e-01  3.35189633e-01
  3.38407055e-01  3.39503706e-01  3.41094190e-01  3.42885397e-01
  3.44417572e-01  3.47387749e-01  3.49886741e-01  3.51540841e-01
  3.53871695e-01  3.54207143e-01  3.54917692e-01  3.57156057e-01
  3.58235072e-01  3.61757658e-01  3.63336093e-01  3.64627681e-01
  3.67225463e-01  3.68368990e-01  3.70672533e-01  3.72251696e-01
  3.72470316e-01  3.74996737e-01  3.76672112e-01  3.77723995e-01
  3.79431568e-01  3.81761683e-01  3.85745989e-01  3.88596276e-01
  3.91680961e-01  3.92682688e-01  3.95590490e-01  3.96232928e-01
  3.99766788e-01  4.00709211e-01  4.01142253e-01  4.03004040e-01
  4.05354163e-01  4.07790720e-01  4.10094776e-01  4.14068066e-01
  4.17266744e-01  4.21000347e-01  4.22517208e-01  4.24384461e-01
  4.25889921e-01  4.26171363e-01  4.27961924e-01  4.29937384e-01
  4.31743363e-01  4.33654061e-01  4.33776382e-01  4.35922258e-01
  4.39954928e-01  4.40803927e-01  4.43205060e-01  4.45899296e-01
  4.45970499e-01  4.48626830e-01  4.48976993e-01  4.50774547e-01
  4.50958363e-01  4.55520406e-01  4.56868888e-01  4.57805672e-01
  4.59063344e-01  4.59724252e-01  4.62357091e-01  4.63783199e-01
  4.65488357e-01  4.66716217e-01  4.68647789e-01  4.69444821e-01
  4.70625100e-01  4.73617212e-01  4.73920567e-01  4.74952257e-01
  4.75584787e-01  4.75826096e-01  4.76738563e-01  4.78011615e-01
  4.79525211e-01  4.81965371e-01  4.84752557e-01  4.85982313e-01
  4.87674978e-01  4.90060340e-01  4.91466744e-01  4.94447411e-01
  4.94511986e-01  4.96501882e-01  4.97451380e-01  5.01988815e-01
  5.02935066e-01  5.03587298e-01  5.05357290e-01  5.06675211e-01
  5.08577303e-01  5.09940974e-01  5.11099333e-01  5.11548040e-01
  5.18534235e-01  5.20307582e-01  5.22035690e-01  5.22567475e-01
  5.24157233e-01  5.25420009e-01  5.26178904e-01  5.28652825e-01
  5.31166352e-01  5.32484977e-01  5.33649058e-01  5.35264972e-01
  5.36295245e-01  5.36938131e-01  5.41161525e-01  5.42311976e-01
  5.46123327e-01  5.47001526e-01  5.49101682e-01  5.49425458e-01
  5.50406974e-01  5.52029075e-01  5.52123118e-01  5.56652789e-01
  5.58066299e-01  5.59824179e-01  5.60439812e-01  5.62637228e-01
  5.64203344e-01  5.64666423e-01  5.67624246e-01  5.69400351e-01
  5.69874699e-01  5.71745018e-01  5.76379806e-01  5.77422538e-01
  5.80828528e-01  5.81687193e-01  5.84754423e-01  5.85630363e-01
  5.87257250e-01  5.96284542e-01  6.00243816e-01  6.04120948e-01
  6.06030770e-01  6.07547962e-01  6.10650236e-01  6.12718160e-01
  6.13091721e-01  6.15539714e-01  6.16316838e-01  6.19174870e-01
  6.20535486e-01  6.22727541e-01  6.25773161e-01  6.28795206e-01
  6.30830202e-01  6.31352031e-01  6.36270287e-01  6.38880551e-01
  6.40992415e-01  6.42537806e-01  6.44624324e-01  6.48817849e-01
  6.51080758e-01  6.53747957e-01  6.54821197e-01  6.55187315e-01
  6.58662517e-01  6.62015203e-01  6.62617398e-01  6.65135948e-01
  6.68495570e-01  6.69665796e-01  6.73233879e-01  6.74699387e-01
  6.74802055e-01  6.77455157e-01  6.79177345e-01  6.81271685e-01
  6.83834091e-01  6.87524794e-01  6.89285295e-01  6.92757136e-01
  6.96238712e-01  6.96849587e-01  6.99658393e-01  7.01287860e-01
  7.03998229e-01  7.07208334e-01  7.09110031e-01  7.11940390e-01
  7.15069764e-01  7.16194871e-01  7.17002121e-01  7.20437541e-01
  7.22993961e-01  7.24732194e-01  7.25964948e-01  7.29735271e-01
  7.30691711e-01  7.31826468e-01  7.35677082e-01  7.37464051e-01
  7.40535548e-01  7.41941925e-01  7.45166479e-01  7.46421118e-01
  7.48881721e-01  7.50243977e-01  7.53188104e-01  7.55558405e-01
  7.56419130e-01  7.58191739e-01  7.58911819e-01  7.61566434e-01
  7.64255256e-01  7.65893038e-01  7.67190416e-01  7.70268063e-01
  7.72539412e-01  7.73599861e-01  7.76015185e-01  7.79656408e-01
  7.82390461e-01  7.83788170e-01  7.87044708e-01  7.88721865e-01
  7.90435807e-01  7.94763904e-01  7.97140182e-01  7.98395801e-01
  7.99723074e-01  8.02946460e-01  8.06138079e-01  8.06620504e-01
  8.09222174e-01  8.10527323e-01  8.10977316e-01  8.11525160e-01
  8.15897426e-01  8.19157850e-01  8.21495625e-01  8.21926185e-01
  8.23316757e-01  8.27157939e-01  8.28297600e-01  8.33731433e-01
  8.34497931e-01  8.37127987e-01  8.40532891e-01  8.44724083e-01
  8.46496980e-01  8.46795177e-01  8.50759406e-01  8.51627207e-01
  8.55721222e-01  8.60941244e-01  8.62321152e-01  8.64052488e-01
  8.65903329e-01  8.66402674e-01  8.66795929e-01  8.68957003e-01
  8.69276861e-01  8.69629157e-01  8.71331963e-01  8.73342998e-01
  8.77512602e-01  8.78432451e-01  8.81773068e-01  8.84014946e-01
  8.86163779e-01  8.88367606e-01  8.90392713e-01  8.92414317e-01
  8.93413615e-01  8.94160229e-01  8.95453463e-01  8.97802502e-01
  9.00817046e-01  9.01992799e-01  9.02833616e-01  9.04253172e-01
  9.06001337e-01  9.08802881e-01  9.12495763e-01  9.13799792e-01
  9.16358341e-01  9.17636131e-01  9.18582959e-01  9.21254691e-01
  9.22883968e-01  9.24188420e-01  9.25601236e-01  9.28537058e-01
  9.29071025e-01  9.30492945e-01  9.33996315e-01  9.35530339e-01
  9.40996693e-01  9.42878094e-01  9.43436959e-01  9.43975169e-01
  9.46502636e-01  9.47692755e-01  9.49854271e-01  9.51321258e-01
  9.52994958e-01  9.54161186e-01  9.55143491e-01  9.55302108e-01
  9.60272061e-01  9.61651942e-01  9.62977352e-01  9.64898663e-01
  9.67481957e-01  9.68675815e-01  9.72549727e-01  9.74208562e-01
  9.76608394e-01  9.76903838e-01  9.80661288e-01  9.86991234e-01
  9.89109291e-01  9.89451809e-01  9.91320414e-01  9.93532872e-01
  9.95770405e-01  9.96970584e-01  9.99934289e-01  1.00260103e+00
  1.00370497e+00  1.00460794e+00  1.00579263e+00  1.00789631e+00
  1.00890391e+00  1.01288290e+00  1.01541861e+00  1.01857080e+00
  1.02018389e+00  1.02234594e+00  1.02392274e+00  1.02448202e+00
  1.02531654e+00  1.02773688e+00  1.02916523e+00  1.03087907e+00
  1.03574487e+00  1.03887584e+00  1.04055671e+00  1.04075917e+00
  1.04202436e+00  1.04356630e+00  1.04792104e+00  1.05011474e+00
  1.05030111e+00  1.05249517e+00  1.05432295e+00  1.05683496e+00
  1.05746474e+00  1.05858538e+00  1.06139944e+00  1.06319833e+00
  1.06551751e+00  1.06576176e+00  1.06865440e+00  1.07054931e+00
  1.07239951e+00  1.07337291e+00  1.07585689e+00  1.07643214e+00
  1.07835405e+00  1.08012298e+00  1.08160488e+00  1.08415692e+00
  1.08571175e+00  1.08684019e+00  1.09094517e+00  1.09217994e+00
  1.09269290e+00  1.09488969e+00  1.09887453e+00  1.09977549e+00
  1.10167574e+00  1.10402138e+00  1.10468153e+00  1.10651967e+00
  1.10924239e+00  1.11035864e+00  1.11154425e+00  1.11547445e+00
  1.11834275e+00  1.12102349e+00  1.12354946e+00  1.12526361e+00
  1.12752093e+00  1.12849020e+00  1.13082652e+00  1.13281545e+00
  1.13464712e+00  1.13677259e+00  1.14338810e+00  1.14761181e+00
  1.15106947e+00  1.15159864e+00  1.15312194e+00  1.15630737e+00
  1.15811669e+00  1.16176796e+00  1.16265793e+00  1.16637874e+00
  1.16715022e+00  1.16977371e+00  1.17206445e+00  1.17613775e+00
  1.17743412e+00  1.17828345e+00  1.18186713e+00  1.18480539e+00
  1.18604827e+00  1.18731216e+00  1.18816050e+00  1.18918246e+00
  1.19244194e+00  1.19539626e+00  1.19586328e+00  1.20477251e+00
  1.20570128e+00  1.20850645e+00  1.20989951e+00  1.21135276e+00
  1.21503554e+00  1.21638996e+00  1.21808277e+00  1.21825915e+00
  1.21935663e+00  1.22299128e+00  1.22734417e+00  1.23125356e+00
  1.23446518e+00  1.23640651e+00  1.24118845e+00  1.24339963e+00
  1.24485612e+00  1.24559787e+00  1.24744098e+00  1.25078786e+00
  1.25157753e+00  1.25225647e+00  1.25553020e+00  1.25675459e+00
  1.25801863e+00  1.25902087e+00  1.26428879e+00  1.26595638e+00
  1.26870078e+00  1.27218967e+00  1.27449830e+00  1.27718543e+00
  1.28120645e+00  1.28480265e+00  1.28599435e+00  1.29138070e+00
  1.29356911e+00  1.29386033e+00  1.29815233e+00  1.29924848e+00
  1.30057332e+00  1.30328172e+00  1.30524250e+00  1.30745855e+00
  1.30810742e+00  1.31166848e+00  1.31227530e+00  1.31502269e+00
  1.31827468e+00  1.31908586e+00  1.32079098e+00  1.32329005e+00
  1.32581475e+00  1.32815647e+00  1.33217899e+00  1.33287045e+00
  1.33374596e+00  1.33726109e+00  1.33933325e+00  1.34049338e+00
  1.34187096e+00  1.34392572e+00  1.34749414e+00  1.34846059e+00
  1.35189429e+00  1.35619191e+00  1.35998477e+00  1.36472643e+00
  1.37135831e+00  1.37460628e+00  1.37565247e+00  1.38121979e+00
  1.38279391e+00  1.38549832e+00  1.38927832e+00  1.39039752e+00
  1.39372426e+00  1.39703033e+00  1.40711084e+00  1.40779990e+00
  1.41009556e+00  1.41347737e+00  1.41555586e+00  1.41872813e+00
  1.42077448e+00  1.42595998e+00  1.43364351e+00  1.43453050e+00
  1.43631382e+00  1.43893072e+00  1.44251742e+00  1.44497820e+00
  1.44851131e+00  1.45075326e+00  1.45469818e+00  1.46188927e+00
  1.46237475e+00  1.46710823e+00  1.46916224e+00  1.47286510e+00
  1.47514698e+00  1.47948106e+00  1.48259073e+00  1.48640310e+00
  1.49034287e+00  1.49107575e+00  1.49630106e+00  1.49733278e+00
  1.50273882e+00  1.50323398e+00  1.50624798e+00  1.51087491e+00
  1.51708183e+00  1.51923171e+00  1.52510634e+00  1.53417762e+00
  1.53852408e+00  1.53973133e+00  1.54336942e+00  1.54595499e+00
  1.54977717e+00  1.55271997e+00  1.56295912e+00  1.56563089e+00
  1.56865962e+00  1.57216451e+00  1.57774992e+00  1.58364247e+00
  1.58971738e+00  1.59279357e+00  1.59870460e+00  1.60146584e+00
  1.60785601e+00  1.61635947e+00  1.61967487e+00  1.62631442e+00
  1.62767786e+00  1.63303587e+00  1.64229657e+00  1.65397973e+00
  1.65818544e+00  1.67395924e+00  1.67513607e+00  1.69028160e+00
  1.69556802e+00  1.71262228e+00  1.72792768e+00  1.73766702e+00
  1.73956657e+00  1.74092370e+00  1.75444727e+00  1.78752864e+00
  1.79526709e+00  1.82980306e+00  1.89009510e+00  1.92404673e+00
  1.95008495e+00  1.98292062e+00  2.00585561e+00  2.02424389e+00
  2.08880981e+00  2.14348878e+00  2.18613295e+00  2.27129861e+00
  2.30549645e+00  2.36677741e+00  2.43221377e+00  2.45571357e+00
  2.49614089e+00  2.51262707e+00  2.53704055e+00  2.56851296e+00
  2.63959565e+00  2.69635920e+00  2.71725985e+00  2.73596221e+00
  2.80800043e+00  2.83252237e+00  2.84731422e+00  2.88956469e+00
  2.89247851e+00  2.91381897e+00  2.99564572e+00  3.02484987e+00
  3.08135885e+00  3.12466227e+00  3.13911992e+00  3.15183490e+00
  3.19490082e+00  3.20439257e+00  3.21887678e+00  3.24092639e+00
  3.30675980e+00  3.31187995e+00  3.32449870e+00  3.33086657e+00
  3.33990129e+00  3.35079416e+00  3.36416364e+00  3.39994890e+00
  3.40546298e+00  3.42272256e+00  3.43664863e+00  3.45497384e+00
  3.46409068e+00  3.48039957e+00  3.48437437e+00  3.49065035e+00
  3.49753817e+00  3.52441621e+00  3.53373162e+00  3.54086280e+00
  3.54880139e+00  3.56644290e+00  3.57636413e+00  3.58115112e+00
  3.58756180e+00  3.62051518e+00  3.62866079e+00  3.64020338e+00
  3.67357885e+00  3.68479278e+00  3.70527614e+00  3.71363712e+00
  3.72086288e+00  3.75116841e+00  3.76271801e+00  3.77131818e+00
  3.79001988e+00  3.79511927e+00  3.82270999e+00  3.84632955e+00
  3.86923336e+00  3.87156571e+00  3.91009549e+00  3.94422990e+00
  3.97127523e+00  3.98251106e+00  4.04120442e+00  4.05759833e+00
  4.06964833e+00  4.08506401e+00  4.09581694e+00  4.10174397e+00
  4.15436689e+00  4.17375465e+00  4.18256534e+00  4.21635662e+00
  4.26558112e+00  4.29713496e+00  4.31212448e+00  4.32112444e+00
  4.40333946e+00  4.41600765e+00  4.44225313e+00  4.45579095e+00
  4.52209898e+00  4.53108871e+00  4.53623420e+00  4.60083426e+00
  4.67004645e+00  4.69625711e+00  4.70887288e+00  4.74968246e+00
  4.79652216e+00  4.84041338e+00  4.85305015e+00  4.95943370e+00
  5.02942392e+00  5.06715440e+00  5.10225915e+00  5.15602262e+00
  5.20214899e+00  5.33981760e+00  5.34515584e+00  5.41187009e+00
  5.45287831e+00  5.51245125e+00  5.51373805e+00  5.54585643e+00
  5.59463370e+00  5.62103766e+00  5.62882438e+00  5.69975622e+00
  5.76854773e+00  5.77748574e+00  5.86210923e+00  5.89525756e+00
  5.99976738e+00  6.01155197e+00  6.10520460e+00  6.13187185e+00
  6.13572916e+00  6.15649568e+00  6.21900523e+00  6.22426383e+00
  6.30141454e+00  6.40568722e+00  6.46157359e+00  6.48160579e+00
  6.50112567e+00  6.60887379e+00  6.66325153e+00  6.73937701e+00
  6.82108428e+00  6.87805112e+00  6.91816554e+00  6.99689287e+00
  7.02404586e+00  7.06134618e+00  7.13014335e+00  7.22507830e+00
  7.24737088e+00  7.31818566e+00  7.36349568e+00  7.37851093e+00
  7.44518921e+00  7.49030442e+00  7.54326659e+00  7.55074127e+00
  7.77042843e+00  7.78039074e+00  7.96130957e+00  8.02391073e+00
  8.11939227e+00  8.47164219e+00  1.13281522e+01  1.31854329e+01
  1.34053356e+01  1.41473634e+01  1.59446867e+01  1.76073315e+01]
    CPU time for vj and vk   2711.55 sec, wall time     85.03 sec
E1 = -2433.5085393151917  E_coul = 1040.4178710108697
cycle= 50 E= -534.234774313742  delta_E= -4.46e-06  |g|= 0.000363  |ddm|= 0.0263
    CPU time for cycle= 50   2717.10 sec, wall time     85.40 sec
    CPU time for scf_cycle 136552.66 sec, wall time   4290.82 sec
    CPU time for SCF 136552.70 sec, wall time   4290.82 sec
SCF not converged.
SCF energy = -534.234774313742
