#INFO: **** input file is /burg/ccce/users/eav2136/projects/batteries/01_mp2/hf_script.py ****
#!/usr/bin/env python3
from pyscf import gto, scf, mp
import sys
from fileutils import dump
import h5py

mol = gto.Mole()
mol.verbose = 10
mol.atom = f"geom_{sys.argv[1]}.xyz"
mol.basis = "ccpvtz"
mol.unit = "ANG"
mol.build()

mf = scf.RHF(mol)
conv, e_tot, mo_energy, mo_coeff, mo_occ = mf.kernel()

dataout = {}
dataout["e_tot"] = e_tot
dataout["conv"] = conv
dump(dataout, f"data/hf_geom_{sys.argv[1]}.json")

with h5py.File(f"data/hf_geom_{sys.argv[1]}.h5", "w") as f:
    f.create_dataset("mo_energy", data=mo_energy)
    f.create_dataset("mo_coeff", data=mo_coeff)#INFO: ******************** input file end ********************


System: uname_result(system='Linux', node='g103', release='4.18.0-193.el8.x86_64', version='#1 SMP Fri Mar 27 14:35:58 UTC 2020', machine='x86_64')  Threads 32
Python 3.10.12 (main, Jul 29 2023, 11:27:27) [GCC 13.2.0]
numpy 1.25.1  scipy 1.10.1
Date: Fri Jan 19 10:47:02 2024
PySCF version 2.0.1
PySCF path  /burg/berkelbach/users/eav2136/builds/pyscf/projected-cvs/pyscf
GIT ORIG_HEAD 0bfbc692adf3ea63b8a509210433219cd1c472a2
GIT HEAD (branch projected-cvs) e14caaa2dddc538b9be2d86f01e5b456fc92da36

[ENV] PYSCF_TMPDIR /burg/ccce/users/eav2136/projects/batteries/01_mp2/tmp
[ENV] PYSCF_MAX_MEMORY 700000
[CONFIG] DEBUG = False
[CONFIG] MAX_MEMORY = 700000
[CONFIG] TMPDIR = /burg/ccce/users/eav2136/projects/batteries/01_mp2/tmp
[CONFIG] UNIT = angstrom
[CONFIG] VERBOSE = 3
[CONFIG] conf_file = None
[INPUT] verbose = 10
[INPUT] max_memory = 700000 
[INPUT] num. atoms = 18
[INPUT] num. electrons = 70
[INPUT] charge = 0
[INPUT] spin (= nelec alpha-beta = 2S) = 0
[INPUT] symmetry False subgroup None
[INPUT] Mole.unit = ANG
[INPUT]  1 C      4.889700000000   4.599650000000  10.258310000000 AA    9.240193831286   8.692078768856  19.385396400887 Bohr
[INPUT]  2 O      4.870170000000   4.245790000000   8.952570000000 AA    9.203287480073   8.023380282417  16.917905410997 Bohr
[INPUT]  3 C      5.310840000000   5.193710000000   8.233300000000 AA   10.036033091385   9.814689470415  15.558682101382 Bohr
[INPUT]  4 O      5.765780000000   6.111200000000   8.982240000000 AA   10.895745094495  11.548494292442  16.973973585113 Bohr
[INPUT]  5 C      5.774150000000   5.702340000000  10.272330000000 AA   10.911562102157  10.775860869152  19.411890361153 Bohr
[INPUT]  6 O      5.299720000000   5.216150000000   7.112960000000 AA   10.015019336880   9.857094924650  13.441546334986 Bohr
[INPUT]  7 H      5.212360000000   3.798320000000  10.814180000000 AA    9.849932862638   7.177784533458  20.435838461749 Bohr
[INPUT]  8 H      3.953110000000   4.871240000000  10.548100000000 AA    7.470295240279   9.205309487026  19.933020134525 Bohr
[INPUT]  9 H      5.464720000000   6.479910000000  10.867980000000 AA   10.326824147433  12.245255211830  20.537505727251 Bohr
[INPUT] 10 H      6.716790000000   5.418990000000  10.529430000000 AA   12.692893536217  10.240406971757  19.897738947779 Bohr
[INPUT] 11 Li     5.263950000000   5.263950000000   5.263950000000 AA    9.947423833404   9.947423833404   9.947423833404 Bohr
[INPUT] 12 Li     5.263950000000   1.754650000000   5.263950000000 AA    9.947423833404   3.315807944468   9.947423833404 Bohr
[INPUT] 13 Li     8.773250000000   5.263950000000   5.263950000000 AA   16.579039722340   9.947423833404   9.947423833404 Bohr
[INPUT] 14 Li     1.754650000000   5.263950000000   5.263950000000 AA    3.315807944468   9.947423833404   9.947423833404 Bohr
[INPUT] 15 Li     5.263950000000   8.773250000000   5.263950000000 AA    9.947423833404  16.579039722340   9.947423833404 Bohr
[INPUT] 16 Li     7.018600000000   3.509300000000   3.509300000000 AA   13.263231777872   6.631615888936   6.631615888936 Bohr
[INPUT] 17 Li     3.509300000000   3.509300000000   3.509300000000 AA    6.631615888936   6.631615888936   6.631615888936 Bohr
[INPUT] 18 Li     7.018600000000   7.018600000000   3.509300000000 AA   13.263231777872  13.263231777872   6.631615888936 Bohr
[INPUT] ---------------- BASIS SET ---------------- 
[INPUT] l, kappa, [nprim/nctr], expnt,             c_1 c_2 ...
[INPUT] C
[INPUT] 0    0    [8    /2   ]  8236              0.000531 -0.000113
                                1235              0.004108 -0.000878
                                280.8             0.021087 -0.00454
                                79.27             0.081853 -0.018133
                                25.59             0.234817 -0.05576
                                8.997             0.434401 -0.126895
                                3.319             0.346129 -0.170352
                                0.3643            -0.008983 0.598684
[INPUT] 0    0    [1    /1   ]  0.9059               1
[INPUT] 0    0    [1    /1   ]  0.1285               1
[INPUT] 1    0    [3    /1   ]  18.71             0.014031
                                4.133             0.086866
                                1.2               0.290216
[INPUT] 1    0    [1    /1   ]  0.3827               1
[INPUT] 1    0    [1    /1   ]  0.1209               1
[INPUT] 2    0    [1    /1   ]  1.097                1
[INPUT] 2    0    [1    /1   ]  0.318                1
[INPUT] 3    0    [1    /1   ]  0.761                1
[INPUT] H
[INPUT] 0    0    [3    /1   ]  33.87             0.006068
                                5.095             0.045308
                                1.159             0.202822
[INPUT] 0    0    [1    /1   ]  0.3258               1
[INPUT] 0    0    [1    /1   ]  0.1027               1
[INPUT] 1    0    [1    /1   ]  1.407                1
[INPUT] 1    0    [1    /1   ]  0.388                1
[INPUT] 2    0    [1    /1   ]  1.057                1
[INPUT] O
[INPUT] 0    0    [8    /2   ]  15330             0.000508 -0.000115
                                2299              0.003929 -0.000895
                                522.4             0.020243 -0.004636
                                147.3             0.079181 -0.018724
                                47.55             0.230687 -0.058463
                                16.76             0.433118 -0.136463
                                6.207             0.35026 -0.17574
                                0.6882            -0.008154 0.603418
[INPUT] 0    0    [1    /1   ]  1.752                1
[INPUT] 0    0    [1    /1   ]  0.2384               1
[INPUT] 1    0    [3    /1   ]  34.46             0.015928
                                7.749             0.09974
                                2.28              0.310492
[INPUT] 1    0    [1    /1   ]  0.7156               1
[INPUT] 1    0    [1    /1   ]  0.214                1
[INPUT] 2    0    [1    /1   ]  2.314                1
[INPUT] 2    0    [1    /1   ]  0.645                1
[INPUT] 3    0    [1    /1   ]  1.428                1
[INPUT] Li
[INPUT] 0    0    [9    /2   ]  5988              0.000133 -2.1e-05
                                898.9             0.001025 -0.000161
                                205.9             0.005272 -0.00082
                                59.24             0.020929 -0.003326
                                19.87             0.06634 -0.010519
                                7.406             0.165775 -0.028097
                                2.93              0.315038 -0.055936
                                1.189             0.393523 -0.099237
                                0.4798            0.19087 -0.112189
[INPUT] 0    0    [1    /1   ]  0.07509              1
[INPUT] 0    0    [1    /1   ]  0.02832              1
[INPUT] 1    0    [3    /1   ]  3.266             0.00863
                                0.6511            0.047538
                                0.1696            0.209772
[INPUT] 1    0    [1    /1   ]  0.05578              1
[INPUT] 1    0    [1    /1   ]  0.0205               1
[INPUT] 2    0    [1    /1   ]  0.1874               1
[INPUT] 2    0    [1    /1   ]  0.0801               1
[INPUT] 3    0    [1    /1   ]  0.1829               1

nuclear repulsion = 411.827279074009
number of shells = 150
number of NR pGTOs = 660
number of NR cGTOs = 476
basis = ccpvtz
ecp = {}
bas 0, expnt(s) = [8.236e+03 1.235e+03 2.808e+02 7.927e+01 2.559e+01 8.997e+00 3.319e+00
 3.643e-01]
bas 1, expnt(s) = [0.9059]
bas 2, expnt(s) = [0.1285]
bas 3, expnt(s) = [18.71   4.133  1.2  ]
bas 4, expnt(s) = [0.3827]
bas 5, expnt(s) = [0.1209]
bas 6, expnt(s) = [1.097]
bas 7, expnt(s) = [0.318]
bas 8, expnt(s) = [0.761]
bas 9, expnt(s) = [1.533e+04 2.299e+03 5.224e+02 1.473e+02 4.755e+01 1.676e+01 6.207e+00
 6.882e-01]
bas 10, expnt(s) = [1.752]
bas 11, expnt(s) = [0.2384]
bas 12, expnt(s) = [34.46   7.749  2.28 ]
bas 13, expnt(s) = [0.7156]
bas 14, expnt(s) = [0.214]
bas 15, expnt(s) = [2.314]
bas 16, expnt(s) = [0.645]
bas 17, expnt(s) = [1.428]
bas 18, expnt(s) = [8.236e+03 1.235e+03 2.808e+02 7.927e+01 2.559e+01 8.997e+00 3.319e+00
 3.643e-01]
bas 19, expnt(s) = [0.9059]
bas 20, expnt(s) = [0.1285]
bas 21, expnt(s) = [18.71   4.133  1.2  ]
bas 22, expnt(s) = [0.3827]
bas 23, expnt(s) = [0.1209]
bas 24, expnt(s) = [1.097]
bas 25, expnt(s) = [0.318]
bas 26, expnt(s) = [0.761]
bas 27, expnt(s) = [1.533e+04 2.299e+03 5.224e+02 1.473e+02 4.755e+01 1.676e+01 6.207e+00
 6.882e-01]
bas 28, expnt(s) = [1.752]
bas 29, expnt(s) = [0.2384]
bas 30, expnt(s) = [34.46   7.749  2.28 ]
bas 31, expnt(s) = [0.7156]
bas 32, expnt(s) = [0.214]
bas 33, expnt(s) = [2.314]
bas 34, expnt(s) = [0.645]
bas 35, expnt(s) = [1.428]
bas 36, expnt(s) = [8.236e+03 1.235e+03 2.808e+02 7.927e+01 2.559e+01 8.997e+00 3.319e+00
 3.643e-01]
bas 37, expnt(s) = [0.9059]
bas 38, expnt(s) = [0.1285]
bas 39, expnt(s) = [18.71   4.133  1.2  ]
bas 40, expnt(s) = [0.3827]
bas 41, expnt(s) = [0.1209]
bas 42, expnt(s) = [1.097]
bas 43, expnt(s) = [0.318]
bas 44, expnt(s) = [0.761]
bas 45, expnt(s) = [1.533e+04 2.299e+03 5.224e+02 1.473e+02 4.755e+01 1.676e+01 6.207e+00
 6.882e-01]
bas 46, expnt(s) = [1.752]
bas 47, expnt(s) = [0.2384]
bas 48, expnt(s) = [34.46   7.749  2.28 ]
bas 49, expnt(s) = [0.7156]
bas 50, expnt(s) = [0.214]
bas 51, expnt(s) = [2.314]
bas 52, expnt(s) = [0.645]
bas 53, expnt(s) = [1.428]
bas 54, expnt(s) = [33.87   5.095  1.159]
bas 55, expnt(s) = [0.3258]
bas 56, expnt(s) = [0.1027]
bas 57, expnt(s) = [1.407]
bas 58, expnt(s) = [0.388]
bas 59, expnt(s) = [1.057]
bas 60, expnt(s) = [33.87   5.095  1.159]
bas 61, expnt(s) = [0.3258]
bas 62, expnt(s) = [0.1027]
bas 63, expnt(s) = [1.407]
bas 64, expnt(s) = [0.388]
bas 65, expnt(s) = [1.057]
bas 66, expnt(s) = [33.87   5.095  1.159]
bas 67, expnt(s) = [0.3258]
bas 68, expnt(s) = [0.1027]
bas 69, expnt(s) = [1.407]
bas 70, expnt(s) = [0.388]
bas 71, expnt(s) = [1.057]
bas 72, expnt(s) = [33.87   5.095  1.159]
bas 73, expnt(s) = [0.3258]
bas 74, expnt(s) = [0.1027]
bas 75, expnt(s) = [1.407]
bas 76, expnt(s) = [0.388]
bas 77, expnt(s) = [1.057]
bas 78, expnt(s) = [5.988e+03 8.989e+02 2.059e+02 5.924e+01 1.987e+01 7.406e+00 2.930e+00
 1.189e+00 4.798e-01]
bas 79, expnt(s) = [0.07509]
bas 80, expnt(s) = [0.02832]
bas 81, expnt(s) = [3.266  0.6511 0.1696]
bas 82, expnt(s) = [0.05578]
bas 83, expnt(s) = [0.0205]
bas 84, expnt(s) = [0.1874]
bas 85, expnt(s) = [0.0801]
bas 86, expnt(s) = [0.1829]
bas 87, expnt(s) = [5.988e+03 8.989e+02 2.059e+02 5.924e+01 1.987e+01 7.406e+00 2.930e+00
 1.189e+00 4.798e-01]
bas 88, expnt(s) = [0.07509]
bas 89, expnt(s) = [0.02832]
bas 90, expnt(s) = [3.266  0.6511 0.1696]
bas 91, expnt(s) = [0.05578]
bas 92, expnt(s) = [0.0205]
bas 93, expnt(s) = [0.1874]
bas 94, expnt(s) = [0.0801]
bas 95, expnt(s) = [0.1829]
bas 96, expnt(s) = [5.988e+03 8.989e+02 2.059e+02 5.924e+01 1.987e+01 7.406e+00 2.930e+00
 1.189e+00 4.798e-01]
bas 97, expnt(s) = [0.07509]
bas 98, expnt(s) = [0.02832]
bas 99, expnt(s) = [3.266  0.6511 0.1696]
bas 100, expnt(s) = [0.05578]
bas 101, expnt(s) = [0.0205]
bas 102, expnt(s) = [0.1874]
bas 103, expnt(s) = [0.0801]
bas 104, expnt(s) = [0.1829]
bas 105, expnt(s) = [5.988e+03 8.989e+02 2.059e+02 5.924e+01 1.987e+01 7.406e+00 2.930e+00
 1.189e+00 4.798e-01]
bas 106, expnt(s) = [0.07509]
bas 107, expnt(s) = [0.02832]
bas 108, expnt(s) = [3.266  0.6511 0.1696]
bas 109, expnt(s) = [0.05578]
bas 110, expnt(s) = [0.0205]
bas 111, expnt(s) = [0.1874]
bas 112, expnt(s) = [0.0801]
bas 113, expnt(s) = [0.1829]
bas 114, expnt(s) = [5.988e+03 8.989e+02 2.059e+02 5.924e+01 1.987e+01 7.406e+00 2.930e+00
 1.189e+00 4.798e-01]
bas 115, expnt(s) = [0.07509]
bas 116, expnt(s) = [0.02832]
bas 117, expnt(s) = [3.266  0.6511 0.1696]
bas 118, expnt(s) = [0.05578]
bas 119, expnt(s) = [0.0205]
bas 120, expnt(s) = [0.1874]
bas 121, expnt(s) = [0.0801]
bas 122, expnt(s) = [0.1829]
bas 123, expnt(s) = [5.988e+03 8.989e+02 2.059e+02 5.924e+01 1.987e+01 7.406e+00 2.930e+00
 1.189e+00 4.798e-01]
bas 124, expnt(s) = [0.07509]
bas 125, expnt(s) = [0.02832]
bas 126, expnt(s) = [3.266  0.6511 0.1696]
bas 127, expnt(s) = [0.05578]
bas 128, expnt(s) = [0.0205]
bas 129, expnt(s) = [0.1874]
bas 130, expnt(s) = [0.0801]
bas 131, expnt(s) = [0.1829]
bas 132, expnt(s) = [5.988e+03 8.989e+02 2.059e+02 5.924e+01 1.987e+01 7.406e+00 2.930e+00
 1.189e+00 4.798e-01]
bas 133, expnt(s) = [0.07509]
bas 134, expnt(s) = [0.02832]
bas 135, expnt(s) = [3.266  0.6511 0.1696]
bas 136, expnt(s) = [0.05578]
bas 137, expnt(s) = [0.0205]
bas 138, expnt(s) = [0.1874]
bas 139, expnt(s) = [0.0801]
bas 140, expnt(s) = [0.1829]
bas 141, expnt(s) = [5.988e+03 8.989e+02 2.059e+02 5.924e+01 1.987e+01 7.406e+00 2.930e+00
 1.189e+00 4.798e-01]
bas 142, expnt(s) = [0.07509]
bas 143, expnt(s) = [0.02832]
bas 144, expnt(s) = [3.266  0.6511 0.1696]
bas 145, expnt(s) = [0.05578]
bas 146, expnt(s) = [0.0205]
bas 147, expnt(s) = [0.1874]
bas 148, expnt(s) = [0.0801]
bas 149, expnt(s) = [0.1829]
CPU time:         0.66
arg.atm = [[ 6 20  1 23  0  0]
 [ 8 24  1 27  0  0]
 [ 6 28  1 31  0  0]
 [ 8 32  1 35  0  0]
 [ 6 36  1 39  0  0]
 [ 8 40  1 43  0  0]
 [ 1 44  1 47  0  0]
 [ 1 48  1 51  0  0]
 [ 1 52  1 55  0  0]
 [ 1 56  1 59  0  0]
 [ 3 60  1 63  0  0]
 [ 3 64  1 67  0  0]
 [ 3 68  1 71  0  0]
 [ 3 72  1 75  0  0]
 [ 3 76  1 79  0  0]
 [ 3 80  1 83  0  0]
 [ 3 84  1 87  0  0]
 [ 3 88  1 91  0  0]]
arg.bas = [[  0   0   8 ...  92 100   0]
 [  0   0   1 ... 116 117   0]
 [  0   0   1 ... 118 119   0]
 ...
 [ 17   2   1 ... 237 238   0]
 [ 17   2   1 ... 239 240   0]
 [ 17   3   1 ... 241 242   0]]
arg.env = [ 0.00000000e+00  0.00000000e+00  0.00000000e+00  0.00000000e+00
  0.00000000e+00  0.00000000e+00  0.00000000e+00  0.00000000e+00
  0.00000000e+00  0.00000000e+00  0.00000000e+00  0.00000000e+00
  0.00000000e+00  0.00000000e+00  0.00000000e+00  0.00000000e+00
  0.00000000e+00  0.00000000e+00  0.00000000e+00  0.00000000e+00
  9.24019383e+00  8.69207877e+00  1.93853964e+01  0.00000000e+00
  9.20328748e+00  8.02338028e+00  1.69179054e+01  0.00000000e+00
  1.00360331e+01  9.81468947e+00  1.55586821e+01  0.00000000e+00
  1.08957451e+01  1.15484943e+01  1.69739736e+01  0.00000000e+00
  1.09115621e+01  1.07758609e+01  1.94118904e+01  0.00000000e+00
  1.00150193e+01  9.85709492e+00  1.34415463e+01  0.00000000e+00
  9.84993286e+00  7.17778453e+00  2.04358385e+01  0.00000000e+00
  7.47029524e+00  9.20530949e+00  1.99330201e+01  0.00000000e+00
  1.03268241e+01  1.22452552e+01  2.05375057e+01  0.00000000e+00
  1.26928935e+01  1.02404070e+01  1.98977389e+01  0.00000000e+00
  9.94742383e+00  9.94742383e+00  9.94742383e+00  0.00000000e+00
  9.94742383e+00  3.31580794e+00  9.94742383e+00  0.00000000e+00
  1.65790397e+01  9.94742383e+00  9.94742383e+00  0.00000000e+00
  3.31580794e+00  9.94742383e+00  9.94742383e+00  0.00000000e+00
  9.94742383e+00  1.65790397e+01  9.94742383e+00  0.00000000e+00
  1.32632318e+01  6.63161589e+00  6.63161589e+00  0.00000000e+00
  6.63161589e+00  6.63161589e+00  6.63161589e+00  0.00000000e+00
  1.32632318e+01  1.32632318e+01  6.63161589e+00  0.00000000e+00
  8.23600000e+03  1.23500000e+03  2.80800000e+02  7.92700000e+01
  2.55900000e+01  8.99700000e+00  3.31900000e+00  3.64300000e-01
  1.18480296e+00  2.20874210e+00  3.73316324e+00  5.61216719e+00
  6.89519583e+00  5.82409515e+00  2.19663441e+00 -1.08712663e-02
 -4.28969670e-01 -8.03166571e-01 -1.36745981e+00 -2.11525239e+00
 -2.78571299e+00 -2.89453423e+00 -1.83934657e+00  1.23268730e+00
  9.05900000e-01  2.34598494e+00  1.28500000e-01  5.42241022e-01
  1.87100000e+01  4.13300000e+00  1.20000000e+00  4.47572721e+00
  4.19627876e+00  2.98800046e+00  3.82700000e-01  8.78127282e-01
  1.20900000e-01  2.07977938e-01  1.09700000e+00  3.06825171e+00
  3.18000000e-01  3.51379844e-01  7.61000000e-01  1.06690522e+00
  3.38700000e+01  5.09500000e+00  1.15900000e+00  9.04334519e-01
  1.63100455e+00  2.40491525e+00  3.25800000e-01  1.08950276e+00
  1.02700000e-01  4.58345379e-01  1.40700000e+00  4.47045795e+00
  3.88000000e-01  8.93354953e-01  1.05700000e+00  2.87515071e+00
  1.53300000e+04  2.29900000e+03  5.22400000e+02  1.47300000e+02
  4.75500000e+01  1.67600000e+01  6.20700000e+00  6.88200000e-01
  1.81067529e+00  3.37486577e+00  5.72265412e+00  8.66150357e+00
  1.08070276e+01  9.28179538e+00  3.56346173e+00 -1.59395830e-02
 -6.86527364e-01 -1.28759909e+00 -2.19507417e+00 -3.43047366e+00
 -4.58719692e+00 -4.89805685e+00 -2.99457591e+00  1.97563931e+00
  1.75200000e+00  3.84738459e+00  2.38400000e-01  8.61975084e-01
  3.44600000e+01  7.74900000e+00  2.28000000e+00  1.00262994e+01
  9.72213774e+00  6.55849668e+00  7.15600000e-01  1.92009319e+00
  2.14000000e-01  4.24621137e-01  2.31400000e+00  1.13283134e+01
  6.45000000e-01  1.21132000e+00  1.42800000e+00  4.39692268e+00
  5.98800000e+03  8.98900000e+02  2.05900000e+02  5.92400000e+01
  1.98700000e+01  7.40600000e+00  2.93000000e+00  1.18900000e+00
  4.79800000e-01  2.29069316e-01  4.25756548e-01  7.25056076e-01
  1.13074246e+00  1.57971158e+00  1.88304523e+00  1.78512072e+00
  1.13373211e+00  2.78411257e-01 -1.33552750e-01 -2.46934407e-01
 -4.16416863e-01 -6.63522613e-01 -9.24900580e-01 -1.17847379e+00
 -1.17034612e+00 -1.05567981e+00 -6.04251387e-01  7.50900000e-02
  3.62411193e-01  2.83200000e-02  1.74415453e-01  3.26600000e+00
  6.51100000e-01  1.69600000e-01  4.55280795e-01  3.34078737e-01
  2.74333054e-01  5.57800000e-02  7.90828897e-02  2.05000000e-02
  2.26295917e-02  1.87400000e-01  1.39275961e-01  8.01000000e-02
  3.14692425e-02  1.82900000e-01  4.31510332e-02]
ecpbas  = []


******** <class 'pyscf.scf.hf.RHF'> ********
method = RHF
initial guess = minao
damping factor = 0
level_shift factor = 0
DIIS = <class 'pyscf.scf.diis.CDIIS'>
diis_start_cycle = 1
diis_space = 8
SCF conv_tol = 1e-09
SCF conv_tol_grad = None
SCF max_cycles = 50
direct_scf = True
direct_scf_tol = 1e-13
chkfile to save SCF result = /burg/ccce/users/eav2136/projects/batteries/01_mp2/tmp/tmp7k_3jmfx
max_memory 700000 MB (current use 95 MB)
Set gradient conv threshold to 3.16228e-05
Nelec from initial guess = 69.99771441901554
E1 = -1360.155306131884  E_coul = 545.0217158869657
init E= -403.306311170909
cond(S) = 45253.83395395035
    CPU time for initialize scf    273.11 sec, wall time      8.71 sec
  HOMO = -0.0750975137989884  LUMO = -0.0554625380201843
  mo_energy =
[-2.08435037e+01 -2.07936506e+01 -2.07926577e+01 -1.13786231e+01
 -1.13528561e+01 -1.13477361e+01 -2.50691202e+00 -2.49529005e+00
 -2.49325478e+00 -2.49294157e+00 -2.48868748e+00 -2.48826744e+00
 -2.48376630e+00 -2.48362932e+00 -2.16853876e+00 -1.79566068e+00
 -1.65774184e+00 -1.33692999e+00 -1.05204291e+00 -9.00565706e-01
 -8.02887654e-01 -7.84330860e-01 -6.88297562e-01 -6.61025836e-01
 -6.20856352e-01 -5.69915596e-01 -5.00087667e-01 -4.93300273e-01
 -4.37606976e-01 -4.04056777e-01 -3.41458146e-01 -3.24510019e-01
 -1.89973885e-01 -1.50698356e-01 -7.50975138e-02 -5.54625380e-02
 -3.68127992e-02 -2.45732889e-02 -6.08572436e-03  9.89656653e-03
  1.24031403e-02  1.95371508e-02  2.64655725e-02  3.03457069e-02
  3.56825178e-02  3.91459580e-02  4.18060035e-02  5.05681178e-02
  5.17764034e-02  5.47718754e-02  5.78914539e-02  5.82015956e-02
  6.11018464e-02  6.41101811e-02  6.50725140e-02  6.85912659e-02
  7.15705159e-02  7.34049518e-02  8.05397831e-02  8.21944496e-02
  8.73700700e-02  9.26379393e-02  9.27694887e-02  9.61184434e-02
  9.75278143e-02  1.02186348e-01  1.03641964e-01  1.07474535e-01
  1.11700619e-01  1.18092580e-01  1.24565296e-01  1.27034333e-01
  1.31901584e-01  1.35883182e-01  1.41340844e-01  1.42263142e-01
  1.44151358e-01  1.57523428e-01  1.62629021e-01  1.65869802e-01
  1.72208604e-01  1.76671377e-01  1.83218538e-01  1.85665354e-01
  1.87741961e-01  1.90108991e-01  1.91771317e-01  1.92216239e-01
  1.96442591e-01  1.99142306e-01  2.07101131e-01  2.09833255e-01
  2.15711505e-01  2.21274248e-01  2.25284010e-01  2.28050029e-01
  2.29831612e-01  2.32511615e-01  2.39481030e-01  2.41825830e-01
  2.44821979e-01  2.52680931e-01  2.60072052e-01  2.70378301e-01
  2.71154930e-01  2.73275847e-01  2.84030433e-01  2.89321418e-01
  2.93134100e-01  2.99056554e-01  3.04911983e-01  3.07138161e-01
  3.13796958e-01  3.17094333e-01  3.17739709e-01  3.23264518e-01
  3.29478436e-01  3.34535078e-01  3.42318738e-01  3.45182832e-01
  3.51690995e-01  3.52728789e-01  3.54736628e-01  3.64155693e-01
  3.68087868e-01  3.70274535e-01  3.75380068e-01  3.81771560e-01
  3.82174343e-01  3.83438508e-01  3.93449526e-01  3.96342532e-01
  3.97877196e-01  3.98971212e-01  4.11537766e-01  4.15632135e-01
  4.19885553e-01  4.27120902e-01  4.30469661e-01  4.32189792e-01
  4.41048845e-01  4.50988901e-01  4.53784708e-01  4.58245083e-01
  4.67282139e-01  4.70260087e-01  4.72291415e-01  4.72623509e-01
  4.77784121e-01  4.80105494e-01  4.85908402e-01  4.92297289e-01
  4.96239287e-01  4.99253871e-01  5.04135971e-01  5.05745152e-01
  5.12307763e-01  5.14098777e-01  5.24420108e-01  5.28123044e-01
  5.30571235e-01  5.36090634e-01  5.37864826e-01  5.51294089e-01
  5.52495370e-01  5.56806859e-01  5.59808066e-01  5.69063569e-01
  5.71695823e-01  5.79664600e-01  5.89609216e-01  6.07688623e-01
  6.09849391e-01  6.20358470e-01  6.23928671e-01  6.37187733e-01
  6.38435166e-01  6.42138690e-01  6.48058843e-01  6.51000283e-01
  6.52508308e-01  6.66634684e-01  6.72243780e-01  6.76643615e-01
  6.81069698e-01  6.86989678e-01  6.89790361e-01  6.97560417e-01
  6.99541971e-01  7.09322252e-01  7.13306067e-01  7.15276240e-01
  7.17420047e-01  7.23376204e-01  7.29202004e-01  7.30830734e-01
  7.34079129e-01  7.35218612e-01  7.37737557e-01  7.42342612e-01
  7.48229061e-01  7.53069034e-01  7.56756923e-01  7.63205949e-01
  7.68591572e-01  7.69824946e-01  7.72521475e-01  7.73344797e-01
  7.77197428e-01  7.78211255e-01  7.88490887e-01  7.96284305e-01
  8.05664510e-01  8.13102803e-01  8.20116711e-01  8.22585997e-01
  8.27297406e-01  8.31179100e-01  8.36429553e-01  8.37410392e-01
  8.43757384e-01  8.48164430e-01  8.57066568e-01  8.59235683e-01
  8.64358026e-01  8.67628079e-01  8.74137389e-01  8.80837515e-01
  8.86462501e-01  8.93380716e-01  8.96055617e-01  8.99616436e-01
  9.02606591e-01  9.07406546e-01  9.11779195e-01  9.17420468e-01
  9.21629953e-01  9.22872729e-01  9.27863006e-01  9.37596035e-01
  9.42746450e-01  9.47540433e-01  9.58350463e-01  9.64439438e-01
  9.65712552e-01  9.69898649e-01  9.74661238e-01  9.80069445e-01
  9.88915914e-01  9.91672782e-01  9.96237834e-01  9.98701168e-01
  1.00820288e+00  1.00840056e+00  1.01477073e+00  1.02143733e+00
  1.03571748e+00  1.04367711e+00  1.04516459e+00  1.05109101e+00
  1.05974352e+00  1.06296872e+00  1.07690213e+00  1.08374378e+00
  1.08908233e+00  1.09041826e+00  1.09318818e+00  1.09841994e+00
  1.10050514e+00  1.10868890e+00  1.11280988e+00  1.12406075e+00
  1.13085154e+00  1.13454960e+00  1.13819766e+00  1.14231735e+00
  1.14729998e+00  1.15224494e+00  1.16704658e+00  1.16949395e+00
  1.18324900e+00  1.19796384e+00  1.20217791e+00  1.21466731e+00
  1.21737570e+00  1.22563747e+00  1.22877504e+00  1.23294193e+00
  1.23753326e+00  1.24554013e+00  1.25543211e+00  1.26088489e+00
  1.27700124e+00  1.28530951e+00  1.28662581e+00  1.29301375e+00
  1.30277700e+00  1.31292990e+00  1.31761623e+00  1.33386915e+00
  1.34624978e+00  1.36236605e+00  1.37995665e+00  1.41824770e+00
  1.42154811e+00  1.46811301e+00  1.48451247e+00  1.50519702e+00
  1.52798747e+00  1.57436903e+00  1.58749315e+00  1.60673553e+00
  1.60831142e+00  1.66968858e+00  1.69680876e+00  1.71371697e+00
  1.79884734e+00  1.85639065e+00  1.86152564e+00  1.88521060e+00
  1.93792138e+00  1.99076613e+00  2.03465814e+00  2.05895666e+00
  2.13188125e+00  2.19162181e+00  2.25717480e+00  2.30034568e+00
  2.32964171e+00  2.39235062e+00  2.43818927e+00  2.44542988e+00
  2.48304239e+00  2.53151724e+00  2.59867544e+00  2.65141897e+00
  2.67259567e+00  2.67467493e+00  2.72574768e+00  2.77686140e+00
  2.81730404e+00  2.82589780e+00  2.84299477e+00  2.87175945e+00
  2.90575016e+00  2.96444326e+00  3.00251034e+00  3.04748611e+00
  3.07055113e+00  3.11845491e+00  3.13478926e+00  3.16791065e+00
  3.18032630e+00  3.19202871e+00  3.20219340e+00  3.23917088e+00
  3.27327584e+00  3.28459565e+00  3.30553704e+00  3.30984377e+00
  3.34497121e+00  3.35678260e+00  3.38940629e+00  3.39631368e+00
  3.40861605e+00  3.42648943e+00  3.46275296e+00  3.47190556e+00
  3.47785405e+00  3.48550388e+00  3.51844832e+00  3.52381891e+00
  3.53921201e+00  3.61068846e+00  3.66968748e+00  3.67911389e+00
  3.68367459e+00  3.72258142e+00  3.74518707e+00  3.78464629e+00
  3.79326954e+00  3.84887492e+00  3.86878424e+00  3.90097989e+00
  3.91271686e+00  3.95103575e+00  3.97372649e+00  4.03196242e+00
  4.03655599e+00  4.04861472e+00  4.06490605e+00  4.09629069e+00
  4.14572666e+00  4.24156182e+00  4.27297716e+00  4.27416885e+00
  4.29324864e+00  4.37389871e+00  4.38622459e+00  4.42395365e+00
  4.42913379e+00  4.49487929e+00  4.52488423e+00  4.52628308e+00
  4.58004863e+00  4.63129925e+00  4.65153540e+00  4.66441390e+00
  4.70405528e+00  4.78292812e+00  4.81121403e+00  4.93547319e+00
  4.99094801e+00  5.02624504e+00  5.04166759e+00  5.10853340e+00
  5.12776618e+00  5.28780450e+00  5.31035568e+00  5.36903011e+00
  5.41818596e+00  5.42353798e+00  5.42953443e+00  5.47655718e+00
  5.50884122e+00  5.51112475e+00  5.57351564e+00  5.64943521e+00
  5.70617901e+00  5.73563285e+00  5.81949043e+00  5.83193637e+00
  5.94315571e+00  5.94872703e+00  6.02266768e+00  6.04918532e+00
  6.09450762e+00  6.11133938e+00  6.14284079e+00  6.16141134e+00
  6.24779343e+00  6.34251952e+00  6.40098744e+00  6.41256576e+00
  6.41845753e+00  6.53171928e+00  6.59352593e+00  6.63034255e+00
  6.67744140e+00  6.75605230e+00  6.82375259e+00  6.86432516e+00
  6.86966281e+00  6.94727016e+00  7.00068298e+00  7.09993399e+00
  7.14064017e+00  7.20960646e+00  7.23413493e+00  7.25251469e+00
  7.27797465e+00  7.36218516e+00  7.41047971e+00  7.44289451e+00
  7.59727604e+00  7.68532670e+00  7.80180325e+00  7.88487009e+00
  8.00617589e+00  8.37531692e+00  1.10034519e+01  1.29956423e+01
  1.32655149e+01  1.39942636e+01  1.58653915e+01  1.72852531e+01]
E1 = -1360.735908258033  E_coul = 548.9272029138832
cycle= 1 E= -399.981426270141  delta_E= 3.32  |g|= 0.926  |ddm|=  2.8
    CPU time for cycle= 1     43.22 sec, wall time      1.37 sec
diis-norm(errvec)=2.93401
diis-c [-8.60838619  1.        ]
  HOMO = -0.106495130518555  LUMO = -0.00128296472037674
  mo_energy =
[-2.06252039e+01 -2.06222356e+01 -2.03056037e+01 -1.17067653e+01
 -1.14615852e+01 -1.14605733e+01 -2.44336630e+00 -2.44147384e+00
 -2.43922036e+00 -2.42712311e+00 -2.42706016e+00 -2.40122889e+00
 -2.39896466e+00 -2.35751778e+00 -1.71352620e+00 -1.52831834e+00
 -1.46772853e+00 -1.21814953e+00 -1.05354549e+00 -9.50806815e-01
 -8.92995970e-01 -8.33925014e-01 -8.01854223e-01 -7.32320576e-01
 -7.25651613e-01 -6.60277003e-01 -6.40428795e-01 -6.37042629e-01
 -5.51143103e-01 -5.02764111e-01 -4.67120880e-01 -2.32661090e-01
 -1.74761387e-01 -1.48838920e-01 -1.06495131e-01 -1.28296472e-03
  1.62499484e-02  1.83498841e-02  2.16421717e-02  3.10397676e-02
  3.74948137e-02  3.86694422e-02  4.40332514e-02  4.55176975e-02
  5.27708331e-02  5.36403697e-02  5.88758665e-02  6.22707596e-02
  6.53790218e-02  6.78491404e-02  6.92251809e-02  7.34272029e-02
  7.70677637e-02  7.75816864e-02  7.96465438e-02  8.70102075e-02
  9.13502420e-02  9.16167561e-02  9.62845190e-02  9.71002103e-02
  9.88730524e-02  1.02638845e-01  1.08988922e-01  1.10199997e-01
  1.14752829e-01  1.20449864e-01  1.21611154e-01  1.28659919e-01
  1.32422351e-01  1.40649580e-01  1.40834716e-01  1.50515613e-01
  1.52657536e-01  1.61178568e-01  1.62404134e-01  1.65954407e-01
  1.72398712e-01  1.75476014e-01  1.76353630e-01  1.89082160e-01
  1.91010740e-01  1.94731638e-01  1.97390485e-01  2.00808639e-01
  2.07688528e-01  2.09602559e-01  2.13413160e-01  2.15205133e-01
  2.16700618e-01  2.25312105e-01  2.25657704e-01  2.40540082e-01
  2.41578548e-01  2.47994418e-01  2.49700381e-01  2.51438329e-01
  2.61437677e-01  2.64468922e-01  2.67339973e-01  2.70952957e-01
  2.78555086e-01  2.82102013e-01  2.85124726e-01  2.93264806e-01
  2.95333469e-01  3.02124150e-01  3.04605440e-01  3.07747600e-01
  3.12048651e-01  3.25565812e-01  3.25862481e-01  3.27812927e-01
  3.33571406e-01  3.38741345e-01  3.44282776e-01  3.49137978e-01
  3.51811786e-01  3.58453539e-01  3.61779618e-01  3.65337125e-01
  3.81630556e-01  3.84250586e-01  3.91591958e-01  3.94088437e-01
  3.97791552e-01  4.00991774e-01  4.08060303e-01  4.10568791e-01
  4.10832381e-01  4.17201024e-01  4.20265888e-01  4.25285977e-01
  4.36496340e-01  4.41866744e-01  4.47446113e-01  4.49718727e-01
  4.50819734e-01  4.56513115e-01  4.59384656e-01  4.60874776e-01
  4.72354289e-01  4.76406498e-01  4.82288125e-01  4.86231513e-01
  4.87922739e-01  4.96231950e-01  5.00785374e-01  5.03839141e-01
  5.10253288e-01  5.14015345e-01  5.15665351e-01  5.17940555e-01
  5.19489302e-01  5.23476704e-01  5.30484721e-01  5.43113367e-01
  5.46192065e-01  5.47720483e-01  5.53987321e-01  5.54483662e-01
  5.64475650e-01  5.66532645e-01  5.71662269e-01  5.81758136e-01
  5.83485983e-01  5.90346141e-01  5.92777624e-01  5.99025388e-01
  6.08351532e-01  6.10853164e-01  6.16536073e-01  6.25865272e-01
  6.28639236e-01  6.31569979e-01  6.41301793e-01  6.48066003e-01
  6.55015321e-01  6.62890741e-01  6.77557092e-01  6.85298845e-01
  6.88642217e-01  6.96749969e-01  7.10456107e-01  7.14194153e-01
  7.17499991e-01  7.34146082e-01  7.37926479e-01  7.41712221e-01
  7.43661110e-01  7.50915796e-01  7.58963445e-01  7.60576597e-01
  7.62777972e-01  7.67249269e-01  7.74403016e-01  7.76193527e-01
  7.81400431e-01  7.84278499e-01  7.86365773e-01  7.96014221e-01
  7.98592981e-01  7.99274582e-01  8.01800651e-01  8.05844036e-01
  8.08033565e-01  8.10628207e-01  8.16179895e-01  8.19841082e-01
  8.20185205e-01  8.24031551e-01  8.28278475e-01  8.45283568e-01
  8.48871560e-01  8.55465124e-01  8.57841204e-01  8.63749683e-01
  8.70728058e-01  8.77508800e-01  8.78226881e-01  8.81547159e-01
  8.84916317e-01  8.92992764e-01  8.96459705e-01  9.01032555e-01
  9.02446470e-01  9.03282637e-01  9.15714538e-01  9.21131443e-01
  9.24339223e-01  9.28446153e-01  9.34994522e-01  9.44570326e-01
  9.45542479e-01  9.48668178e-01  9.54074828e-01  9.57447770e-01
  9.62221243e-01  9.68103018e-01  9.75258223e-01  9.79292649e-01
  9.83403734e-01  9.84424535e-01  9.93909785e-01  1.00070891e+00
  1.00349415e+00  1.00712084e+00  1.01224078e+00  1.01758566e+00
  1.02372881e+00  1.03305517e+00  1.03704936e+00  1.03846809e+00
  1.04387321e+00  1.04454986e+00  1.05884649e+00  1.06140437e+00
  1.06276860e+00  1.06772483e+00  1.07444411e+00  1.09297841e+00
  1.09735451e+00  1.10079829e+00  1.10648597e+00  1.11985846e+00
  1.12310761e+00  1.13497288e+00  1.14316658e+00  1.15179986e+00
  1.15514783e+00  1.15684961e+00  1.15940753e+00  1.16523505e+00
  1.16934464e+00  1.17637302e+00  1.18482860e+00  1.18967371e+00
  1.19401168e+00  1.19931392e+00  1.20181413e+00  1.20753098e+00
  1.21667479e+00  1.23239030e+00  1.23595063e+00  1.24649889e+00
  1.24816236e+00  1.25430104e+00  1.25501422e+00  1.26114868e+00
  1.26825316e+00  1.27345885e+00  1.28230816e+00  1.29593351e+00
  1.30121457e+00  1.30965137e+00  1.31358801e+00  1.32524840e+00
  1.32831434e+00  1.34485117e+00  1.36622833e+00  1.37441407e+00
  1.38122190e+00  1.38721462e+00  1.39988342e+00  1.41475081e+00
  1.42132166e+00  1.44798470e+00  1.48596592e+00  1.48686149e+00
  1.51517178e+00  1.53150299e+00  1.56520229e+00  1.60144158e+00
  1.61017521e+00  1.62609297e+00  1.68932651e+00  1.74978510e+00
  1.81083705e+00  1.82118584e+00  1.84590886e+00  1.90758403e+00
  1.95034249e+00  1.96433246e+00  2.03269769e+00  2.11136213e+00
  2.15852541e+00  2.20656881e+00  2.23130295e+00  2.28248269e+00
  2.33148985e+00  2.36540395e+00  2.41791429e+00  2.44377176e+00
  2.46950581e+00  2.49683015e+00  2.55102453e+00  2.59225355e+00
  2.62502344e+00  2.64740624e+00  2.70739829e+00  2.73037612e+00
  2.75581875e+00  2.79174168e+00  2.80823212e+00  2.81586647e+00
  2.91883825e+00  2.93652320e+00  2.95292947e+00  2.97812502e+00
  3.02143026e+00  3.04661008e+00  3.06536177e+00  3.11534075e+00
  3.13283729e+00  3.14947390e+00  3.22098375e+00  3.22196658e+00
  3.23437805e+00  3.24146090e+00  3.25280207e+00  3.26750642e+00
  3.26977157e+00  3.29923093e+00  3.33187460e+00  3.35404319e+00
  3.38554157e+00  3.39779371e+00  3.40556432e+00  3.45909302e+00
  3.46862513e+00  3.48322332e+00  3.49691402e+00  3.52229396e+00
  3.53947227e+00  3.55494471e+00  3.61033092e+00  3.63498427e+00
  3.65527570e+00  3.69883708e+00  3.71430135e+00  3.73905235e+00
  3.79681125e+00  3.80825741e+00  3.84196827e+00  3.85121403e+00
  3.88582210e+00  3.90169642e+00  3.91613223e+00  3.97413046e+00
  3.99616919e+00  4.00638200e+00  4.03716206e+00  4.04540196e+00
  4.10359335e+00  4.20214707e+00  4.22776527e+00  4.24259792e+00
  4.24729400e+00  4.33851342e+00  4.34324456e+00  4.36735738e+00
  4.39332638e+00  4.44957965e+00  4.46243753e+00  4.47424480e+00
  4.59600891e+00  4.61562041e+00  4.63518842e+00  4.76029002e+00
  4.78870842e+00  4.79179729e+00  4.88744478e+00  4.89354854e+00
  4.95811174e+00  5.00099717e+00  5.03504656e+00  5.09710123e+00
  5.15139140e+00  5.27893004e+00  5.28063153e+00  5.33967114e+00
  5.38610821e+00  5.45209798e+00  5.46338374e+00  5.47335361e+00
  5.58485073e+00  5.64963075e+00  5.65365365e+00  5.69262047e+00
  5.70926419e+00  5.73034693e+00  5.79774534e+00  5.87148122e+00
  5.93760006e+00  5.97031156e+00  6.03088354e+00  6.05453407e+00
  6.08843844e+00  6.11946749e+00  6.16847361e+00  6.20461518e+00
  6.22974060e+00  6.35057042e+00  6.39837373e+00  6.42201470e+00
  6.43180947e+00  6.56671039e+00  6.60218259e+00  6.71788354e+00
  6.79574024e+00  6.83126409e+00  6.89642330e+00  7.06711034e+00
  7.07782841e+00  7.10061617e+00  7.15290803e+00  7.19101109e+00
  7.22860332e+00  7.27884315e+00  7.30922100e+00  7.35133237e+00
  7.42750656e+00  7.52106015e+00  7.56154438e+00  7.56595772e+00
  7.75104299e+00  7.75623222e+00  7.98686428e+00  8.02661725e+00
  8.07640259e+00  8.46616373e+00  1.10266690e+01  1.30203097e+01
  1.33103942e+01  1.39787360e+01  1.57663156e+01  1.73169526e+01]
E1 = -1361.8581807631876  E_coul = 549.9169297081788
cycle= 2 E= -400.113971981  delta_E= -0.133  |g|= 0.545  |ddm|= 0.923
    CPU time for cycle= 2     43.47 sec, wall time      1.38 sec
diis-norm(errvec)=1.7224
diis-c [-0.77596092  0.34592003  0.65407997]
  HOMO = -0.117220357793426  LUMO = -0.00399302841599969
  mo_energy =
[-2.06518558e+01 -2.06515451e+01 -2.06402937e+01 -1.14534644e+01
 -1.13164247e+01 -1.13153924e+01 -2.44485655e+00 -2.44463576e+00
 -2.43775565e+00 -2.43532955e+00 -2.43470513e+00 -2.42279110e+00
 -2.42093469e+00 -2.42058156e+00 -1.64536670e+00 -1.50523289e+00
 -1.47573024e+00 -1.14141046e+00 -9.94914916e-01 -9.05278871e-01
 -8.39982616e-01 -8.18763729e-01 -7.60216340e-01 -7.33354064e-01
 -6.97436898e-01 -6.85361465e-01 -6.14544537e-01 -5.89816179e-01
 -5.57772175e-01 -5.41643522e-01 -5.11172819e-01 -2.44098480e-01
 -1.85982465e-01 -1.62843659e-01 -1.17220358e-01 -3.99302842e-03
  1.35105007e-02  1.61362553e-02  2.01390820e-02  2.78511612e-02
  3.48851337e-02  3.94304825e-02  4.05518124e-02  4.16095012e-02
  4.95536084e-02  5.16634383e-02  5.60988810e-02  6.12580971e-02
  6.46257481e-02  6.66942186e-02  6.84572832e-02  7.20281558e-02
  7.49364372e-02  7.50970367e-02  8.21644899e-02  8.41567647e-02
  9.02978364e-02  9.10653807e-02  9.18004677e-02  9.43979825e-02
  9.54761821e-02  1.02964121e-01  1.07479184e-01  1.09402301e-01
  1.12105669e-01  1.19930106e-01  1.24918618e-01  1.26777443e-01
  1.30505485e-01  1.40908096e-01  1.42368501e-01  1.47194456e-01
  1.54572528e-01  1.56741191e-01  1.60248202e-01  1.66014219e-01
  1.72111064e-01  1.77587893e-01  1.90215714e-01  1.92177460e-01
  1.94576715e-01  1.97435235e-01  1.99243203e-01  2.01577177e-01
  2.06094779e-01  2.12210406e-01  2.12401946e-01  2.13954976e-01
  2.16607297e-01  2.24658338e-01  2.27456830e-01  2.33448043e-01
  2.37476892e-01  2.44226514e-01  2.47598558e-01  2.49054602e-01
  2.56180818e-01  2.59958381e-01  2.64321329e-01  2.68615271e-01
  2.71045242e-01  2.76966065e-01  2.80922564e-01  2.96242658e-01
  2.97692186e-01  2.99899793e-01  3.10306649e-01  3.13473689e-01
  3.16786292e-01  3.19123231e-01  3.21876540e-01  3.30811955e-01
  3.32444791e-01  3.38062095e-01  3.42148525e-01  3.46049162e-01
  3.46739637e-01  3.50590851e-01  3.59574214e-01  3.60257253e-01
  3.76237757e-01  3.77137237e-01  3.92586981e-01  3.92985645e-01
  3.97623489e-01  3.98738245e-01  4.04385332e-01  4.12976188e-01
  4.14642497e-01  4.18387624e-01  4.21415455e-01  4.22675099e-01
  4.28513711e-01  4.34722682e-01  4.36594822e-01  4.40586667e-01
  4.45800982e-01  4.53921718e-01  4.55248615e-01  4.59145406e-01
  4.67757777e-01  4.73289841e-01  4.84074388e-01  4.86263515e-01
  4.91373021e-01  4.95046210e-01  4.97538870e-01  5.04165272e-01
  5.12966163e-01  5.14510405e-01  5.16942673e-01  5.24220114e-01
  5.26140286e-01  5.29764212e-01  5.37360338e-01  5.42466650e-01
  5.43509351e-01  5.50077515e-01  5.52176042e-01  5.56168179e-01
  5.63835562e-01  5.65600813e-01  5.69016941e-01  5.78016752e-01
  5.80518314e-01  5.85642346e-01  5.96460385e-01  6.00851661e-01
  6.11777268e-01  6.14643514e-01  6.23926763e-01  6.29015771e-01
  6.38320810e-01  6.47177196e-01  6.52805095e-01  6.59180458e-01
  6.62254954e-01  6.81780604e-01  6.85842255e-01  6.87499665e-01
  6.90259636e-01  7.02046634e-01  7.05099973e-01  7.18064392e-01
  7.21422085e-01  7.25815177e-01  7.36269632e-01  7.39340826e-01
  7.42369762e-01  7.50914981e-01  7.52305644e-01  7.58511975e-01
  7.61900181e-01  7.66394405e-01  7.68395566e-01  7.72961364e-01
  7.73524758e-01  7.75733140e-01  7.79546451e-01  7.84692017e-01
  7.87324767e-01  7.90484171e-01  7.95622291e-01  7.98962247e-01
  8.00706872e-01  8.05413896e-01  8.10317585e-01  8.11988745e-01
  8.15911967e-01  8.16646671e-01  8.19162330e-01  8.38569518e-01
  8.45288126e-01  8.47126106e-01  8.50641352e-01  8.56023251e-01
  8.64140255e-01  8.69658369e-01  8.71271736e-01  8.75088083e-01
  8.78924866e-01  8.84366700e-01  8.91874802e-01  8.96104450e-01
  8.99153221e-01  9.04641772e-01  9.14115324e-01  9.15886321e-01
  9.17428326e-01  9.31618110e-01  9.32654071e-01  9.33876874e-01
  9.37440092e-01  9.42323640e-01  9.46248805e-01  9.51711705e-01
  9.53465229e-01  9.61219154e-01  9.67388974e-01  9.70741161e-01
  9.77369207e-01  9.85225876e-01  9.96542871e-01  9.98505681e-01
  1.00216112e+00  1.00964038e+00  1.01207145e+00  1.01270386e+00
  1.02243895e+00  1.02384290e+00  1.03115868e+00  1.03647513e+00
  1.04147855e+00  1.04667194e+00  1.05278372e+00  1.05607007e+00
  1.05696505e+00  1.05812008e+00  1.06739126e+00  1.08645326e+00
  1.09679074e+00  1.09800192e+00  1.10453848e+00  1.11088818e+00
  1.11707553e+00  1.12640423e+00  1.13549108e+00  1.14120411e+00
  1.14405666e+00  1.14907848e+00  1.15273486e+00  1.15886984e+00
  1.17283884e+00  1.17767029e+00  1.18434356e+00  1.18553820e+00
  1.19267287e+00  1.19553452e+00  1.20511131e+00  1.21562063e+00
  1.21633414e+00  1.22337440e+00  1.23402809e+00  1.24111734e+00
  1.24177496e+00  1.24821143e+00  1.26630027e+00  1.26762101e+00
  1.27842057e+00  1.28007062e+00  1.28350012e+00  1.29464565e+00
  1.29681551e+00  1.30100290e+00  1.30841819e+00  1.31593647e+00
  1.32060570e+00  1.33558065e+00  1.36181525e+00  1.37323588e+00
  1.38806623e+00  1.38952176e+00  1.40482377e+00  1.41448160e+00
  1.42247796e+00  1.45278717e+00  1.50106305e+00  1.50706556e+00
  1.51981583e+00  1.56655884e+00  1.57415457e+00  1.61241364e+00
  1.62447378e+00  1.65697862e+00  1.71499576e+00  1.76784872e+00
  1.79280897e+00  1.86303264e+00  1.87156149e+00  1.90497321e+00
  1.96414778e+00  1.99538014e+00  2.06896734e+00  2.09108358e+00
  2.15160377e+00  2.22328719e+00  2.27438373e+00  2.32282348e+00
  2.35902220e+00  2.41215057e+00  2.44740712e+00  2.46621662e+00
  2.49925437e+00  2.52956182e+00  2.60173943e+00  2.64639084e+00
  2.66548815e+00  2.69975068e+00  2.74028556e+00  2.77920292e+00
  2.82771520e+00  2.84505835e+00  2.85291514e+00  2.86940067e+00
  2.94554822e+00  2.96721865e+00  3.00160304e+00  3.04752142e+00
  3.07869714e+00  3.11445610e+00  3.12824864e+00  3.17765405e+00
  3.19324397e+00  3.21905325e+00  3.22520591e+00  3.25408361e+00
  3.28873091e+00  3.29261791e+00  3.30802123e+00  3.31160051e+00
  3.34149242e+00  3.34811921e+00  3.37531614e+00  3.40530608e+00
  3.43336127e+00  3.44807595e+00  3.46541705e+00  3.46991470e+00
  3.51587323e+00  3.52246439e+00  3.52929517e+00  3.53940752e+00
  3.55226165e+00  3.60833730e+00  3.66947557e+00  3.69112656e+00
  3.69124231e+00  3.74308226e+00  3.76019331e+00  3.79700450e+00
  3.84262380e+00  3.85240462e+00  3.85540216e+00  3.88858517e+00
  3.91128087e+00  3.95408755e+00  3.96107357e+00  4.02112769e+00
  4.03672165e+00  4.05274336e+00  4.07024518e+00  4.08751160e+00
  4.14932860e+00  4.24268669e+00  4.26875213e+00  4.28334649e+00
  4.28616958e+00  4.38193967e+00  4.38365460e+00  4.42210310e+00
  4.43098744e+00  4.49441644e+00  4.51164830e+00  4.51238543e+00
  4.64905923e+00  4.66074182e+00  4.67427018e+00  4.68927749e+00
  4.75748917e+00  4.81441764e+00  4.82731947e+00  4.94393303e+00
  5.00477878e+00  5.04953637e+00  5.07638499e+00  5.13895497e+00
  5.15041582e+00  5.32039555e+00  5.33229423e+00  5.39018699e+00
  5.43443653e+00  5.47307854e+00  5.48393627e+00  5.52433301e+00
  5.56857971e+00  5.59568300e+00  5.60067726e+00  5.68024806e+00
  5.74210075e+00  5.74973115e+00  5.84470975e+00  5.87080431e+00
  5.98120850e+00  5.99119438e+00  6.08366583e+00  6.10417856e+00
  6.11687700e+00  6.14278595e+00  6.19874238e+00  6.20586673e+00
  6.28011769e+00  6.39077766e+00  6.44606647e+00  6.45657741e+00
  6.46212876e+00  6.58768192e+00  6.64231052e+00  6.70979861e+00
  6.78707587e+00  6.83893843e+00  6.89861970e+00  6.95977690e+00
  6.98075770e+00  7.03317632e+00  7.08930877e+00  7.19233591e+00
  7.22329747e+00  7.29753071e+00  7.32107210e+00  7.34791352e+00
  7.40011062e+00  7.44627706e+00  7.50882937e+00  7.52576736e+00
  7.71838462e+00  7.76529260e+00  7.90558333e+00  7.98261868e+00
  8.08400524e+00  8.45197574e+00  1.10473854e+01  1.30451750e+01
  1.33349552e+01  1.40259538e+01  1.58757830e+01  1.73192253e+01]
E1 = -1362.0010687310737  E_coul = 550.0097988161536
cycle= 3 E= -400.163990840911  delta_E= -0.05  |g|= 0.0859  |ddm|= 0.28
    CPU time for cycle= 3     43.64 sec, wall time      1.38 sec
diis-norm(errvec)=0.282881
diis-c [-0.04948959 -0.06885709 -0.01133074  1.08018783]
  HOMO = -0.11670918062782  LUMO = -0.000559824649541127
  mo_energy =
[-2.06620224e+01 -2.06606728e+01 -2.05557553e+01 -1.14485075e+01
 -1.13083322e+01 -1.13072871e+01 -2.43830945e+00 -2.43730507e+00
 -2.42624122e+00 -2.42555493e+00 -2.42548026e+00 -2.42177845e+00
 -2.42120178e+00 -2.41400895e+00 -1.64281899e+00 -1.48159383e+00
 -1.47835220e+00 -1.13428189e+00 -9.90098615e-01 -9.03970401e-01
 -8.36962308e-01 -8.06546604e-01 -7.52963081e-01 -7.20045626e-01
 -6.86422827e-01 -6.85007558e-01 -6.20178521e-01 -5.89373100e-01
 -5.38581350e-01 -5.27154594e-01 -5.11160621e-01 -2.36598076e-01
 -1.81792093e-01 -1.60512136e-01 -1.16709181e-01 -5.59824650e-04
  1.71005000e-02  1.95496192e-02  2.14952241e-02  2.86034155e-02
  3.69501477e-02  4.03905623e-02  4.13093069e-02  4.25181636e-02
  4.99106882e-02  5.24552427e-02  5.72177044e-02  6.17878584e-02
  6.54011693e-02  6.76717528e-02  7.04437195e-02  7.48484263e-02
  7.62877975e-02  7.66138967e-02  8.34087248e-02  8.36980494e-02
  9.14876340e-02  9.24560744e-02  9.39161998e-02  9.49765065e-02
  9.63669876e-02  1.04180740e-01  1.09271706e-01  1.10126508e-01
  1.14033030e-01  1.22250443e-01  1.28374661e-01  1.28476528e-01
  1.33156391e-01  1.43076629e-01  1.44455021e-01  1.49770517e-01
  1.57059000e-01  1.58235904e-01  1.62420623e-01  1.67506531e-01
  1.73212192e-01  1.80011704e-01  1.92391250e-01  1.94779399e-01
  1.98557834e-01  1.99306043e-01  2.02477950e-01  2.05445355e-01
  2.10364122e-01  2.15522211e-01  2.16438430e-01  2.17080576e-01
  2.18982248e-01  2.28012387e-01  2.29857753e-01  2.36464068e-01
  2.40906489e-01  2.46657816e-01  2.50631398e-01  2.52134348e-01
  2.58796376e-01  2.62596065e-01  2.66002672e-01  2.71095624e-01
  2.72376692e-01  2.79524160e-01  2.84329144e-01  2.99135754e-01
  3.00383736e-01  3.03045716e-01  3.12637253e-01  3.16159402e-01
  3.19150780e-01  3.21592748e-01  3.24826097e-01  3.33202165e-01
  3.34595188e-01  3.40809471e-01  3.45747067e-01  3.48411475e-01
  3.50498886e-01  3.52555455e-01  3.62439930e-01  3.63100089e-01
  3.78208029e-01  3.80455506e-01  3.95914567e-01  3.97982117e-01
  3.99807975e-01  4.01910823e-01  4.08074983e-01  4.15430278e-01
  4.17088641e-01  4.21081876e-01  4.24006256e-01  4.25358699e-01
  4.34930451e-01  4.37697835e-01  4.39749037e-01  4.44508987e-01
  4.50454216e-01  4.56629331e-01  4.58307566e-01  4.62745826e-01
  4.70904402e-01  4.76598730e-01  4.86773447e-01  4.89082962e-01
  4.94650927e-01  4.98475470e-01  5.01578454e-01  5.07170238e-01
  5.17640600e-01  5.19495104e-01  5.21387776e-01  5.28147650e-01
  5.30034037e-01  5.33228927e-01  5.41299169e-01  5.46252862e-01
  5.47331175e-01  5.54930921e-01  5.57496184e-01  5.61243447e-01
  5.65787174e-01  5.68748606e-01  5.71910223e-01  5.82050548e-01
  5.85157371e-01  5.91261507e-01  6.01034093e-01  6.06443843e-01
  6.16037717e-01  6.19666560e-01  6.27943292e-01  6.34231568e-01
  6.42816244e-01  6.52815175e-01  6.59125882e-01  6.63518324e-01
  6.66734776e-01  6.86152403e-01  6.90811940e-01  6.93686741e-01
  6.95553075e-01  7.06712401e-01  7.09777246e-01  7.22608957e-01
  7.28273704e-01  7.31066276e-01  7.41007668e-01  7.44230667e-01
  7.46701311e-01  7.56686188e-01  7.57765627e-01  7.63394374e-01
  7.67271291e-01  7.71151551e-01  7.73176403e-01  7.76354974e-01
  7.78088587e-01  7.78760958e-01  7.83671533e-01  7.87950732e-01
  7.92021739e-01  7.93706614e-01  7.99366273e-01  8.00712649e-01
  8.04608000e-01  8.09746090e-01  8.13777933e-01  8.15914488e-01
  8.19472128e-01  8.21641999e-01  8.24022565e-01  8.41568582e-01
  8.48175403e-01  8.50632398e-01  8.53749058e-01  8.58915774e-01
  8.68884985e-01  8.73375821e-01  8.75710231e-01  8.79437014e-01
  8.81588039e-01  8.87668620e-01  8.96319252e-01  9.00703922e-01
  9.02441844e-01  9.08974149e-01  9.17801732e-01  9.19885120e-01
  9.21037055e-01  9.34169530e-01  9.36442405e-01  9.37710075e-01
  9.41821496e-01  9.47293849e-01  9.49601888e-01  9.55179271e-01
  9.57131647e-01  9.65568149e-01  9.71813744e-01  9.75947395e-01
  9.81811934e-01  9.90798446e-01  1.00144475e+00  1.00310525e+00
  1.00780935e+00  1.01475873e+00  1.01731920e+00  1.01812163e+00
  1.02672188e+00  1.02870553e+00  1.03551564e+00  1.04205161e+00
  1.04574040e+00  1.05136760e+00  1.05707757e+00  1.06171106e+00
  1.06262637e+00  1.06376026e+00  1.07269028e+00  1.09177743e+00
  1.10146135e+00  1.10278550e+00  1.10924092e+00  1.11532076e+00
  1.12237779e+00  1.13262037e+00  1.14226294e+00  1.14693761e+00
  1.14937169e+00  1.15465939e+00  1.15824429e+00  1.16481993e+00
  1.17903210e+00  1.18384641e+00  1.19022747e+00  1.19170012e+00
  1.19948257e+00  1.20262106e+00  1.21089629e+00  1.22181116e+00
  1.22230734e+00  1.22993947e+00  1.24051781e+00  1.24768061e+00
  1.24879422e+00  1.25520432e+00  1.27310197e+00  1.27462405e+00
  1.28472388e+00  1.28653303e+00  1.29021396e+00  1.30109665e+00
  1.30385189e+00  1.30784766e+00  1.31577446e+00  1.32266691e+00
  1.32724143e+00  1.34289690e+00  1.36888657e+00  1.38028027e+00
  1.39481031e+00  1.39696175e+00  1.40944447e+00  1.41983755e+00
  1.42798787e+00  1.45817332e+00  1.50647659e+00  1.51235994e+00
  1.52481102e+00  1.57107545e+00  1.57936071e+00  1.61481768e+00
  1.63217876e+00  1.66133815e+00  1.71948573e+00  1.77916888e+00
  1.80056231e+00  1.86865778e+00  1.87696154e+00  1.91268304e+00
  1.97372671e+00  1.99739348e+00  2.07154479e+00  2.10298315e+00
  2.15680257e+00  2.23070699e+00  2.27355664e+00  2.32686255e+00
  2.36385365e+00  2.42003654e+00  2.45150297e+00  2.47102232e+00
  2.50530246e+00  2.53344531e+00  2.60592857e+00  2.65380711e+00
  2.67174888e+00  2.70605338e+00  2.74923907e+00  2.78685339e+00
  2.83215140e+00  2.84840376e+00  2.86049278e+00  2.87683971e+00
  2.95257055e+00  2.97395876e+00  3.00823853e+00  3.05453417e+00
  3.08552793e+00  3.12049180e+00  3.13326245e+00  3.18469564e+00
  3.20129007e+00  3.22381570e+00  3.23015815e+00  3.25717517e+00
  3.29530428e+00  3.29811528e+00  3.31543999e+00  3.31705337e+00
  3.34802573e+00  3.35265424e+00  3.37970975e+00  3.41183103e+00
  3.44135880e+00  3.45501462e+00  3.47291027e+00  3.47721045e+00
  3.52497227e+00  3.52793730e+00  3.53680805e+00  3.54541245e+00
  3.55776929e+00  3.61377386e+00  3.67516125e+00  3.69906784e+00
  3.70111022e+00  3.75568598e+00  3.76613982e+00  3.80285213e+00
  3.85081927e+00  3.86068639e+00  3.86356536e+00  3.89738545e+00
  3.91929209e+00  3.96026286e+00  3.97030129e+00  4.02969717e+00
  4.04633120e+00  4.06046078e+00  4.07901925e+00  4.09483857e+00
  4.15883147e+00  4.25157892e+00  4.27883460e+00  4.28897194e+00
  4.29450407e+00  4.39023492e+00  4.39345222e+00  4.43007841e+00
  4.44197955e+00  4.50230181e+00  4.52032864e+00  4.52136832e+00
  4.65774071e+00  4.67713272e+00  4.68418743e+00  4.71536770e+00
  4.77966028e+00  4.82597853e+00  4.83278812e+00  4.95066197e+00
  5.01291436e+00  5.05470168e+00  5.08509647e+00  5.14674258e+00
  5.16436001e+00  5.32710610e+00  5.33779884e+00  5.40065768e+00
  5.44359810e+00  5.48681320e+00  5.49192392e+00  5.53380165e+00
  5.59473035e+00  5.61465377e+00  5.62136666e+00  5.69183264e+00
  5.74940586e+00  5.75798675e+00  5.85178994e+00  5.88112784e+00
  5.98496524e+00  6.00356342e+00  6.09026667e+00  6.12151203e+00
  6.12490083e+00  6.14751218e+00  6.20344091e+00  6.21443206e+00
  6.28701732e+00  6.39386215e+00  6.45234284e+00  6.46040592e+00
  6.46552834e+00  6.59441550e+00  6.64664510e+00  6.72319243e+00
  6.80645222e+00  6.84909048e+00  6.90947980e+00  6.98409923e+00
  7.01388069e+00  7.05267329e+00  7.10983619e+00  7.19857027e+00
  7.22715357e+00  7.30112934e+00  7.31770800e+00  7.34863771e+00
  7.42443979e+00  7.45329675e+00  7.52339238e+00  7.52512365e+00
  7.73509758e+00  7.76290320e+00  7.92518415e+00  7.99144480e+00
  8.08317096e+00  8.46844831e+00  1.10534591e+01  1.30582967e+01
  1.33313059e+01  1.40366244e+01  1.58829848e+01  1.73455422e+01]
E1 = -1361.9057110434453  E_coul = 549.9115681553435
cycle= 4 E= -400.166863814093  delta_E= -0.00287  |g|= 0.0372  |ddm|= 0.153
    CPU time for cycle= 4     43.82 sec, wall time      1.38 sec
diis-norm(errvec)=0.115705
diis-c [-0.00682753 -0.03550818 -0.04168772  0.28163543  0.79556047]
  HOMO = -0.117579118456072  LUMO = -0.000750399977149836
  mo_energy =
[-2.06480034e+01 -2.06472612e+01 -2.05855770e+01 -1.14555522e+01
 -1.13150445e+01 -1.13140015e+01 -2.43871446e+00 -2.43757785e+00
 -2.42781541e+00 -2.42761341e+00 -2.42689494e+00 -2.41993785e+00
 -2.41923863e+00 -2.41664223e+00 -1.64230285e+00 -1.49096601e+00
 -1.47493693e+00 -1.13568840e+00 -9.89742195e-01 -9.02200813e-01
 -8.36805751e-01 -8.10020088e-01 -7.54261488e-01 -7.26159281e-01
 -6.89872446e-01 -6.83954583e-01 -6.16135748e-01 -5.90361206e-01
 -5.46283789e-01 -5.31777436e-01 -5.10227894e-01 -2.36988028e-01
 -1.82530152e-01 -1.60967652e-01 -1.17579118e-01 -7.50399977e-04
  1.72551613e-02  1.94798135e-02  2.14426910e-02  2.84590788e-02
  3.66961919e-02  4.04608449e-02  4.13525182e-02  4.23060340e-02
  4.98391542e-02  5.25202170e-02  5.71167344e-02  6.17223971e-02
  6.53169149e-02  6.76682649e-02  7.04304333e-02  7.45833520e-02
  7.62472428e-02  7.65926474e-02  8.32545326e-02  8.38368251e-02
  9.15003110e-02  9.23656539e-02  9.37440655e-02  9.51303639e-02
  9.62684131e-02  1.03933895e-01  1.09019496e-01  1.10054977e-01
  1.13776642e-01  1.22150406e-01  1.28047813e-01  1.28421667e-01
  1.32943758e-01  1.43006434e-01  1.44482043e-01  1.49476553e-01
  1.57006092e-01  1.58513024e-01  1.62547236e-01  1.67691950e-01
  1.73330258e-01  1.79968474e-01  1.92271980e-01  1.94606841e-01
  1.98207963e-01  1.99236500e-01  2.02139553e-01  2.05080240e-01
  2.09842865e-01  2.15200559e-01  2.15744420e-01  2.16781978e-01
  2.18822364e-01  2.27808142e-01  2.29895669e-01  2.36065179e-01
  2.40526031e-01  2.46311892e-01  2.50139116e-01  2.51778935e-01
  2.58492095e-01  2.62433562e-01  2.66016967e-01  2.70796194e-01
  2.72462133e-01  2.79320496e-01  2.84079753e-01  2.98787702e-01
  3.00312780e-01  3.02493489e-01  3.12663447e-01  3.16117174e-01
  3.19139356e-01  3.21424299e-01  3.24825984e-01  3.33471199e-01
  3.34443742e-01  3.40603959e-01  3.45278617e-01  3.48136878e-01
  3.49807111e-01  3.52424368e-01  3.62085057e-01  3.62722706e-01
  3.78291460e-01  3.79946994e-01  3.95295811e-01  3.97352055e-01
  3.99681714e-01  4.01632527e-01  4.07526582e-01  4.15134316e-01
  4.16839985e-01  4.20681774e-01  4.23715651e-01  4.25123179e-01
  4.34003688e-01  4.37461998e-01  4.39693337e-01  4.44041512e-01
  4.49892737e-01  4.56363784e-01  4.57944531e-01  4.62422963e-01
  4.70562173e-01  4.76284561e-01  4.86697415e-01  4.88798081e-01
  4.94367763e-01  4.98082847e-01  5.01167337e-01  5.06861257e-01
  5.17084638e-01  5.19192235e-01  5.21040073e-01  5.27839894e-01
  5.29461843e-01  5.32997786e-01  5.40990885e-01  5.45807972e-01
  5.47199903e-01  5.54494097e-01  5.56641898e-01  5.60529416e-01
  5.65963608e-01  5.68549046e-01  5.71806036e-01  5.81565955e-01
  5.84397439e-01  5.90663700e-01  6.00546627e-01  6.05585534e-01
  6.15688933e-01  6.18968390e-01  6.27652345e-01  6.33643805e-01
  6.42356589e-01  6.52213454e-01  6.58287673e-01  6.63298774e-01
  6.66326545e-01  6.85859326e-01  6.90463479e-01  6.93226799e-01
  6.95222916e-01  7.06782771e-01  7.09492528e-01  7.22516413e-01
  7.27566288e-01  7.31005270e-01  7.40649220e-01  7.43982136e-01
  7.46383523e-01  7.56207514e-01  7.57339957e-01  7.63307159e-01
  7.66809151e-01  7.70779224e-01  7.72711363e-01  7.76257887e-01
  7.78016839e-01  7.78820505e-01  7.83559170e-01  7.88129604e-01
  7.91708107e-01  7.93844110e-01  7.99423299e-01  8.01014949e-01
  8.04482613e-01  8.09372532e-01  8.13608605e-01  8.15638870e-01
  8.19411145e-01  8.20985793e-01  8.23702055e-01  8.41579005e-01
  8.48346614e-01  8.50549584e-01  8.53704277e-01  8.59011606e-01
  8.68279867e-01  8.73153638e-01  8.75451943e-01  8.78876398e-01
  8.81503060e-01  8.87606770e-01  8.95785630e-01  9.00249303e-01
  9.02287239e-01  9.08793416e-01  9.17557526e-01  9.19265581e-01
  9.20742108e-01  9.34282040e-01  9.36306069e-01  9.37267238e-01
  9.41585607e-01  9.46575718e-01  9.49373835e-01  9.55129387e-01
  9.56811433e-01  9.65145957e-01  9.71315396e-01  9.75192035e-01
  9.81572822e-01  9.90083171e-01  1.00096220e+00  1.00260511e+00
  1.00728029e+00  1.01436708e+00  1.01681900e+00  1.01777152e+00
  1.02656684e+00  1.02838984e+00  1.03504066e+00  1.04150893e+00
  1.04554762e+00  1.05087210e+00  1.05647646e+00  1.06086147e+00
  1.06192773e+00  1.06289545e+00  1.07197868e+00  1.09097681e+00
  1.10096984e+00  1.10220072e+00  1.10878697e+00  1.11507066e+00
  1.12165934e+00  1.13178832e+00  1.14148011e+00  1.14632903e+00
  1.14887459e+00  1.15413429e+00  1.15788591e+00  1.16421803e+00
  1.17823063e+00  1.18319399e+00  1.18971288e+00  1.19148178e+00
  1.19843432e+00  1.20198819e+00  1.21012056e+00  1.22098373e+00
  1.22134389e+00  1.22915598e+00  1.23973233e+00  1.24698637e+00
  1.24786187e+00  1.25454839e+00  1.27206418e+00  1.27377928e+00
  1.28430966e+00  1.28560766e+00  1.28929322e+00  1.30027597e+00
  1.30236318e+00  1.30698962e+00  1.31421345e+00  1.32197286e+00
  1.32587440e+00  1.34183485e+00  1.36766152e+00  1.37858004e+00
  1.39389208e+00  1.39595275e+00  1.40910519e+00  1.41926876e+00
  1.42696217e+00  1.45750389e+00  1.50552642e+00  1.51155004e+00
  1.52420596e+00  1.57081815e+00  1.57783165e+00  1.61581979e+00
  1.62951310e+00  1.66112677e+00  1.71904248e+00  1.77556711e+00
  1.79989375e+00  1.86802919e+00  1.87542063e+00  1.91082557e+00
  1.97063446e+00  1.99785401e+00  2.07185009e+00  2.09906514e+00
  2.15607618e+00  2.22903731e+00  2.27548286e+00  2.32673153e+00
  2.36321656e+00  2.41774899e+00  2.45000059e+00  2.47042447e+00
  2.50386938e+00  2.53266411e+00  2.60562475e+00  2.65141998e+00
  2.67001292e+00  2.70448760e+00  2.74634615e+00  2.78512578e+00
  2.83015952e+00  2.84802126e+00  2.85818393e+00  2.87458785e+00
  2.95142210e+00  2.97183559e+00  3.00550680e+00  3.05254680e+00
  3.08329006e+00  3.11876981e+00  3.13164216e+00  3.18339420e+00
  3.19953456e+00  3.22374223e+00  3.22871074e+00  3.25742794e+00
  3.29400872e+00  3.29682194e+00  3.31401669e+00  3.31618618e+00
  3.34624612e+00  3.35127833e+00  3.37772614e+00  3.41012310e+00
  3.43946338e+00  3.45391365e+00  3.47093791e+00  3.47589404e+00
  3.52385435e+00  3.52731715e+00  3.53609471e+00  3.54470326e+00
  3.55708799e+00  3.61291642e+00  3.67363202e+00  3.69776488e+00
  3.69845383e+00  3.75182319e+00  3.76507802e+00  3.80162119e+00
  3.84898186e+00  3.86005234e+00  3.86289176e+00  3.89695098e+00
  3.91741844e+00  3.95990989e+00  3.96945011e+00  4.02912059e+00
  4.04538450e+00  4.05985161e+00  4.07790900e+00  4.09438231e+00
  4.15763711e+00  4.25143003e+00  4.27805077e+00  4.29048812e+00
  4.29432263e+00  4.39048441e+00  4.39212565e+00  4.42881579e+00
  4.44105235e+00  4.50262895e+00  4.51995776e+00  4.52161357e+00
  4.65655321e+00  4.67411179e+00  4.68154029e+00  4.70595095e+00
  4.77399099e+00  4.82351660e+00  4.83406109e+00  4.94959521e+00
  5.01300585e+00  5.05541820e+00  5.08465530e+00  5.14627543e+00
  5.16166572e+00  5.32730680e+00  5.33820859e+00  5.39955045e+00
  5.44311329e+00  5.48409933e+00  5.49184901e+00  5.53310234e+00
  5.58571098e+00  5.61184677e+00  5.61240443e+00  5.69036358e+00
  5.74939558e+00  5.75721606e+00  5.85210994e+00  5.87995825e+00
  5.98664558e+00  6.00116907e+00  6.09078397e+00  6.11690090e+00
  6.12410312e+00  6.14816248e+00  6.20477127e+00  6.21338207e+00
  6.28714285e+00  6.39561851e+00  6.45286253e+00  6.46198254e+00
  6.46724821e+00  6.59496274e+00  6.64768293e+00  6.72043955e+00
  6.80208993e+00  6.84807745e+00  6.90854615e+00  6.97611519e+00
  7.00280774e+00  7.04713069e+00  7.10407237e+00  7.20008201e+00
  7.22936656e+00  7.30369559e+00  7.32385625e+00  7.35275973e+00
  7.41876430e+00  7.45279081e+00  7.52133813e+00  7.52935737e+00
  7.73252799e+00  7.76822198e+00  7.92001641e+00  7.99182333e+00
  8.08767299e+00  8.46387319e+00  1.10535781e+01  1.30542689e+01
  1.33377200e+01  1.40332457e+01  1.58788689e+01  1.73347111e+01]
E1 = -1361.9682451435565  E_coul = 549.9735833649021
cycle= 5 E= -400.167382704645  delta_E= -0.000519  |g|= 0.00992  |ddm|= 0.0504
    CPU time for cycle= 5     43.73 sec, wall time      1.38 sec
diis-norm(errvec)=0.042139
diis-c [-1.02589924e-03  1.30712453e-02  4.84712116e-03 -1.78635278e-01
 -9.17464514e-02  1.25246336e+00]
  HOMO = -0.117940470914412  LUMO = -0.00057507590837732
  mo_energy =
[-2.06535698e+01 -2.06527942e+01 -2.05835102e+01 -1.14545969e+01
 -1.13146687e+01 -1.13136256e+01 -2.43890575e+00 -2.43733056e+00
 -2.42823091e+00 -2.42816397e+00 -2.42745417e+00 -2.41808148e+00
 -2.41704430e+00 -2.41659278e+00 -1.64300425e+00 -1.49011639e+00
 -1.47621273e+00 -1.13558379e+00 -9.90240701e-01 -9.02953120e-01
 -8.37127457e-01 -8.09881459e-01 -7.54442657e-01 -7.25973310e-01
 -6.89307884e-01 -6.84783317e-01 -6.17561545e-01 -5.90787098e-01
 -5.45938966e-01 -5.31272961e-01 -5.11088987e-01 -2.36327078e-01
 -1.82417204e-01 -1.60708974e-01 -1.17940471e-01 -5.75075908e-04
  1.75697586e-02  1.98688727e-02  2.14615555e-02  2.85083590e-02
  3.67195895e-02  4.06784150e-02  4.15919927e-02  4.22958257e-02
  4.99134627e-02  5.26112441e-02  5.72475715e-02  6.17299076e-02
  6.53892507e-02  6.77327921e-02  7.05473883e-02  7.46324974e-02
  7.63540040e-02  7.68295351e-02  8.32430929e-02  8.40079584e-02
  9.16422681e-02  9.25269388e-02  9.38568625e-02  9.54485273e-02
  9.63040459e-02  1.03879189e-01  1.08974888e-01  1.10079849e-01
  1.13841017e-01  1.22452184e-01  1.28069095e-01  1.28651644e-01
  1.33067154e-01  1.43199727e-01  1.44640907e-01  1.49522295e-01
  1.57161319e-01  1.59048633e-01  1.62852883e-01  1.68098303e-01
  1.73598743e-01  1.80061058e-01  1.92479014e-01  1.94703110e-01
  1.98385794e-01  1.99352502e-01  2.02243822e-01  2.05195896e-01
  2.10049826e-01  2.15227880e-01  2.15869025e-01  2.16883147e-01
  2.18930882e-01  2.27981231e-01  2.30027733e-01  2.36173643e-01
  2.40610098e-01  2.46421759e-01  2.50235567e-01  2.51788188e-01
  2.58668267e-01  2.62675629e-01  2.66555155e-01  2.70991808e-01
  2.73006255e-01  2.79604723e-01  2.84119995e-01  2.98934109e-01
  3.00514503e-01  3.02432966e-01  3.12923112e-01  3.16291774e-01
  3.19313125e-01  3.21673199e-01  3.25055826e-01  3.33845170e-01
  3.34616417e-01  3.40669143e-01  3.45164273e-01  3.48354948e-01
  3.49756368e-01  3.52695680e-01  3.62168817e-01  3.62805386e-01
  3.78767425e-01  3.80037144e-01  3.95098227e-01  3.97497195e-01
  3.99937303e-01  4.01936706e-01  4.07562587e-01  4.15312007e-01
  4.17017459e-01  4.20855762e-01  4.23830888e-01  4.25336258e-01
  4.34264552e-01  4.37873879e-01  4.39942864e-01  4.44351197e-01
  4.50000680e-01  4.56527775e-01  4.58312497e-01  4.62607612e-01
  4.70763199e-01  4.76458411e-01  4.86895892e-01  4.88880580e-01
  4.94611181e-01  4.98289287e-01  5.01408460e-01  5.07015430e-01
  5.17040409e-01  5.19479123e-01  5.21253775e-01  5.28076501e-01
  5.29564462e-01  5.33308582e-01  5.41192423e-01  5.45908112e-01
  5.47614847e-01  5.54803349e-01  5.56667844e-01  5.60785550e-01
  5.66356388e-01  5.68964305e-01  5.72103870e-01  5.81633252e-01
  5.84345033e-01  5.90894944e-01  6.00782524e-01  6.05564537e-01
  6.15891573e-01  6.19284412e-01  6.27857041e-01  6.33919880e-01
  6.42504883e-01  6.52419780e-01  6.58307776e-01  6.63574970e-01
  6.66488822e-01  6.86125530e-01  6.90663298e-01  6.93554321e-01
  6.95401877e-01  7.06826415e-01  7.09933445e-01  7.22695373e-01
  7.27648200e-01  7.31516980e-01  7.40807236e-01  7.44195891e-01
  7.46846295e-01  7.56413157e-01  7.57622440e-01  7.63698569e-01
  7.66992134e-01  7.71130228e-01  7.72900040e-01  7.76594893e-01
  7.78387086e-01  7.79259941e-01  7.83867874e-01  7.88818761e-01
  7.92148053e-01  7.94334672e-01  7.99856509e-01  8.01755627e-01
  8.04805473e-01  8.09567147e-01  8.13836216e-01  8.16035106e-01
  8.19938760e-01  8.21031587e-01  8.23938976e-01  8.42190418e-01
  8.48972201e-01  8.50947490e-01  8.54048323e-01  8.59395271e-01
  8.68416269e-01  8.73449211e-01  8.75794589e-01  8.79205103e-01
  8.81825413e-01  8.88134768e-01  8.96077838e-01  9.00574145e-01
  9.02486099e-01  9.09194825e-01  9.17841106e-01  9.19448318e-01
  9.20908255e-01  9.34688862e-01  9.36469049e-01  9.37408093e-01
  9.41950465e-01  9.46661971e-01  9.49790208e-01  9.55424322e-01
  9.57013653e-01  9.65393633e-01  9.71500272e-01  9.75270660e-01
  9.81803718e-01  9.90141807e-01  1.00120465e+00  1.00282344e+00
  1.00743977e+00  1.01460513e+00  1.01694682e+00  1.01800227e+00
  1.02698005e+00  1.02886040e+00  1.03528486e+00  1.04171908e+00
  1.04591949e+00  1.05127241e+00  1.05676884e+00  1.06100992e+00
  1.06215376e+00  1.06299159e+00  1.07214540e+00  1.09111835e+00
  1.10120240e+00  1.10252394e+00  1.10882594e+00  1.11547248e+00
  1.12172322e+00  1.13182043e+00  1.14163896e+00  1.14656404e+00
  1.14924065e+00  1.15437619e+00  1.15820683e+00  1.16450085e+00
  1.17849425e+00  1.18342843e+00  1.19000284e+00  1.19195146e+00
  1.19861415e+00  1.20227242e+00  1.21030533e+00  1.22115494e+00
  1.22144380e+00  1.22936936e+00  1.23986896e+00  1.24713072e+00
  1.24817622e+00  1.25467035e+00  1.27214515e+00  1.27392273e+00
  1.28449777e+00  1.28576477e+00  1.28953270e+00  1.30051712e+00
  1.30259873e+00  1.30710204e+00  1.31450169e+00  1.32218210e+00
  1.32602697e+00  1.34204191e+00  1.36793963e+00  1.37888935e+00
  1.39417727e+00  1.39628864e+00  1.40912889e+00  1.41958382e+00
  1.42706604e+00  1.45765300e+00  1.50571329e+00  1.51157834e+00
  1.52428898e+00  1.57090178e+00  1.57808494e+00  1.61564102e+00
  1.62978278e+00  1.66103334e+00  1.71905296e+00  1.77617618e+00
  1.79990237e+00  1.86794669e+00  1.87553369e+00  1.91097096e+00
  1.97089650e+00  1.99756437e+00  2.07154683e+00  2.09958555e+00
  2.15604282e+00  2.22907671e+00  2.27494436e+00  2.32644372e+00
  2.36298200e+00  2.41794114e+00  2.45014870e+00  2.47026389e+00
  2.50396183e+00  2.53254199e+00  2.60545679e+00  2.65174848e+00
  2.67015862e+00  2.70447178e+00  2.74659109e+00  2.78517933e+00
  2.83041384e+00  2.84787354e+00  2.85835166e+00  2.87464074e+00
  2.95167389e+00  2.97193848e+00  3.00567091e+00  3.05246361e+00
  3.08343384e+00  3.11886848e+00  3.13168793e+00  3.18335555e+00
  3.19934974e+00  3.22436845e+00  3.22898251e+00  3.25834677e+00
  3.29396712e+00  3.29681235e+00  3.31403095e+00  3.31632193e+00
  3.34624985e+00  3.35164436e+00  3.37773637e+00  3.41012683e+00
  3.43937818e+00  3.45388087e+00  3.47104870e+00  3.47587195e+00
  3.52363814e+00  3.52715785e+00  3.53585541e+00  3.54464926e+00
  3.55680287e+00  3.61268033e+00  3.67354631e+00  3.69744884e+00
  3.69863998e+00  3.75206286e+00  3.76473482e+00  3.80150589e+00
  3.84894591e+00  3.85990573e+00  3.86282589e+00  3.89686788e+00
  3.91750819e+00  3.95956574e+00  3.96946339e+00  4.02913677e+00
  4.04532560e+00  4.05983533e+00  4.07783834e+00  4.09434125e+00
  4.15749248e+00  4.25131802e+00  4.27806116e+00  4.28988897e+00
  4.29426966e+00  4.39022863e+00  4.39210932e+00  4.42877298e+00
  4.44100315e+00  4.50227519e+00  4.51987370e+00  4.52163862e+00
  4.65644843e+00  4.67440969e+00  4.68150183e+00  4.70669078e+00
  4.77423854e+00  4.82313212e+00  4.83341980e+00  4.94927528e+00
  5.01261368e+00  5.05486618e+00  5.08427584e+00  5.14613259e+00
  5.16135078e+00  5.32680245e+00  5.33777723e+00  5.39943856e+00
  5.44286239e+00  5.48401062e+00  5.49132458e+00  5.53299132e+00
  5.58657422e+00  5.61187603e+00  5.61319235e+00  5.69016314e+00
  5.74891479e+00  5.75706580e+00  5.85159302e+00  5.87947803e+00
  5.98572980e+00  6.00105840e+00  6.09003817e+00  6.11701860e+00
  6.12390729e+00  6.14756970e+00  6.20370402e+00  6.21290535e+00
  6.28665410e+00  6.39446666e+00  6.45217526e+00  6.46077581e+00
  6.46617846e+00  6.59400912e+00  6.64658630e+00  6.71990374e+00
  6.80171254e+00  6.84719117e+00  6.90757778e+00  6.97656600e+00
  7.00359769e+00  7.04692102e+00  7.10400713e+00  7.19882217e+00
  7.22794966e+00  7.30221717e+00  7.32184171e+00  7.35107902e+00
  7.41913971e+00  7.45154182e+00  7.52099545e+00  7.52744869e+00
  7.73195889e+00  7.76627349e+00  7.91977628e+00  7.99069801e+00
  8.08587340e+00  8.46373599e+00  1.10525779e+01  1.30540091e+01
  1.33350456e+01  1.40329159e+01  1.58790555e+01  1.73354735e+01]
E1 = -1362.0021150368004  E_coul = 550.0072627464833
cycle= 6 E= -400.167573216308  delta_E= -0.000191  |g|= 0.00424  |ddm|= 0.0467
    CPU time for cycle= 6     43.71 sec, wall time      1.38 sec
diis-norm(errvec)=0.0190927
diis-c [-2.02831603e-04  7.23244441e-03  8.95363210e-03 -4.43474784e-02
 -1.49488400e-01 -1.98038093e-02  1.19745361e+00]
  HOMO = -0.118095025012869  LUMO = -0.000391320526733974
  mo_energy =
[-2.06504232e+01 -2.06495799e+01 -2.05824020e+01 -1.14534905e+01
 -1.13137715e+01 -1.13127263e+01 -2.43902167e+00 -2.43703489e+00
 -2.42804093e+00 -2.42727941e+00 -2.42704778e+00 -2.41789893e+00
 -2.41669078e+00 -2.41652025e+00 -1.64176907e+00 -1.48942649e+00
 -1.47479925e+00 -1.13492114e+00 -9.89356716e-01 -9.01855615e-01
 -8.36340845e-01 -8.09278191e-01 -7.53771002e-01 -7.25379062e-01
 -6.88777241e-01 -6.83990660e-01 -6.16240429e-01 -5.90056931e-01
 -5.45537300e-01 -5.30487493e-01 -5.10347109e-01 -2.35758667e-01
 -1.82160881e-01 -1.60597842e-01 -1.18095025e-01 -3.91320527e-04
  1.77785992e-02  2.01303824e-02  2.14883319e-02  2.85233654e-02
  3.68287013e-02  4.07452006e-02  4.16980026e-02  4.23676285e-02
  4.99436639e-02  5.26391334e-02  5.73285730e-02  6.17471373e-02
  6.54722394e-02  6.78125061e-02  7.06480543e-02  7.47750106e-02
  7.64169107e-02  7.70062210e-02  8.33240915e-02  8.40286804e-02
  9.17377514e-02  9.26048522e-02  9.39709759e-02  9.55440091e-02
  9.63538318e-02  1.03978978e-01  1.09053768e-01  1.10155469e-01
  1.13923293e-01  1.22624114e-01  1.28262212e-01  1.28754273e-01
  1.33194312e-01  1.43336493e-01  1.44766038e-01  1.49567656e-01
  1.57267441e-01  1.59223452e-01  1.63035031e-01  1.68228704e-01
  1.73690519e-01  1.80130574e-01  1.92610787e-01  1.94837152e-01
  1.98554226e-01  1.99488964e-01  2.02419888e-01  2.05469221e-01
  2.10340279e-01  2.15380118e-01  2.16143960e-01  2.17086759e-01
  2.19054281e-01  2.28198116e-01  2.30153169e-01  2.36313573e-01
  2.40739143e-01  2.46539729e-01  2.50401610e-01  2.51931923e-01
  2.58808694e-01  2.62806101e-01  2.66740390e-01  2.71080156e-01
  2.73179853e-01  2.79789329e-01  2.84276184e-01  2.99106607e-01
  3.00679458e-01  3.02559507e-01  3.13083413e-01  3.16502651e-01
  3.19464211e-01  3.21835103e-01  3.25278633e-01  3.34021297e-01
  3.34763513e-01  3.40839486e-01  3.45243250e-01  3.48532150e-01
  3.49892208e-01  3.52799758e-01  3.62320846e-01  3.62980820e-01
  3.78977771e-01  3.80224414e-01  3.95191244e-01  3.97748702e-01
  4.00196997e-01  4.02149183e-01  4.07763710e-01  4.15423909e-01
  4.17165780e-01  4.21056393e-01  4.23992181e-01  4.25463237e-01
  4.34456305e-01  4.38055888e-01  4.40214553e-01  4.44529081e-01
  4.50300252e-01  4.56676897e-01  4.58522896e-01  4.62818285e-01
  4.71028521e-01  4.76635442e-01  4.87029005e-01  4.89045719e-01
  4.94836191e-01  4.98531197e-01  5.01729780e-01  5.07171501e-01
  5.17203813e-01  5.19773944e-01  5.21541539e-01  5.28346734e-01
  5.29766974e-01  5.33600519e-01  5.41433351e-01  5.46159498e-01
  5.47972559e-01  5.55076254e-01  5.57038542e-01  5.61027068e-01
  5.66594613e-01  5.69231935e-01  5.72330769e-01  5.81868922e-01
  5.84556212e-01  5.91140919e-01  6.00956923e-01  6.05882877e-01
  6.16127402e-01  6.19518448e-01  6.28171783e-01  6.34246709e-01
  6.42810617e-01  6.52720697e-01  6.58611593e-01  6.63774694e-01
  6.66824088e-01  6.86310278e-01  6.91075370e-01  6.93949943e-01
  6.95792225e-01  7.07350500e-01  7.10284543e-01  7.22976334e-01
  7.27941239e-01  7.31837838e-01  7.41040043e-01  7.44478601e-01
  7.47083165e-01  7.56724671e-01  7.57965936e-01  7.64017370e-01
  7.67319353e-01  7.71519745e-01  7.73246950e-01  7.76846718e-01
  7.78667111e-01  7.79518385e-01  7.84152164e-01  7.89095789e-01
  7.92411617e-01  7.94608988e-01  8.00121361e-01  8.02011999e-01
  8.05024692e-01  8.09822158e-01  8.13973878e-01  8.16315434e-01
  8.20199478e-01  8.21272273e-01  8.24295628e-01  8.42460160e-01
  8.49218780e-01  8.51245551e-01  8.54297143e-01  8.59682825e-01
  8.68735742e-01  8.73665016e-01  8.76055108e-01  8.79459931e-01
  8.82079262e-01  8.88382876e-01  8.96361864e-01  9.00941274e-01
  9.02785470e-01  9.09403381e-01  9.18016723e-01  9.19698352e-01
  9.21189457e-01  9.34969201e-01  9.36766682e-01  9.37621084e-01
  9.42310091e-01  9.46922780e-01  9.50054424e-01  9.55712491e-01
  9.57188735e-01  9.65647010e-01  9.71737399e-01  9.75478029e-01
  9.82115300e-01  9.90356203e-01  1.00144914e+00  1.00311503e+00
  1.00777074e+00  1.01487046e+00  1.01729481e+00  1.01824053e+00
  1.02725020e+00  1.02910297e+00  1.03549131e+00  1.04206395e+00
  1.04623415e+00  1.05152809e+00  1.05707416e+00  1.06128554e+00
  1.06244321e+00  1.06327115e+00  1.07244061e+00  1.09129471e+00
  1.10151212e+00  1.10280854e+00  1.10916095e+00  1.11576643e+00
  1.12198478e+00  1.13206302e+00  1.14200371e+00  1.14684472e+00
  1.14954727e+00  1.15462393e+00  1.15853670e+00  1.16480265e+00
  1.17881834e+00  1.18372807e+00  1.19028096e+00  1.19234527e+00
  1.19895953e+00  1.20265679e+00  1.21058833e+00  1.22151973e+00
  1.22180555e+00  1.22958744e+00  1.24015649e+00  1.24748848e+00
  1.24853277e+00  1.25503884e+00  1.27241434e+00  1.27429039e+00
  1.28494411e+00  1.28607508e+00  1.28989945e+00  1.30080379e+00
  1.30291050e+00  1.30747445e+00  1.31481571e+00  1.32258463e+00
  1.32634271e+00  1.34248117e+00  1.36830507e+00  1.37921105e+00
  1.39453307e+00  1.39671506e+00  1.40947619e+00  1.41982601e+00
  1.42756686e+00  1.45792885e+00  1.50601690e+00  1.51200822e+00
  1.52462393e+00  1.57123473e+00  1.57843056e+00  1.61613091e+00
  1.63025035e+00  1.66149026e+00  1.71956688e+00  1.77626606e+00
  1.80018960e+00  1.86843395e+00  1.87601725e+00  1.91147433e+00
  1.97135847e+00  1.99827819e+00  2.07227179e+00  2.09998072e+00
  2.15664083e+00  2.22966831e+00  2.27581633e+00  2.32715972e+00
  2.36369727e+00  2.41848841e+00  2.45079935e+00  2.47093748e+00
  2.50449022e+00  2.53325300e+00  2.60604708e+00  2.65221567e+00
  2.67067374e+00  2.70507147e+00  2.74709587e+00  2.78564596e+00
  2.83099569e+00  2.84859606e+00  2.85885334e+00  2.87517514e+00
  2.95205641e+00  2.97253469e+00  3.00625979e+00  3.05301881e+00
  3.08403030e+00  3.11937984e+00  3.13230048e+00  3.18384140e+00
  3.19998743e+00  3.22472738e+00  3.22945001e+00  3.25870877e+00
  3.29449203e+00  3.29735274e+00  3.31451146e+00  3.31670000e+00
  3.34681704e+00  3.35208370e+00  3.37844695e+00  3.41071913e+00
  3.43995230e+00  3.45418967e+00  3.47155833e+00  3.47631697e+00
  3.52431476e+00  3.52770445e+00  3.53644192e+00  3.54500942e+00
  3.55754169e+00  3.61332686e+00  3.67421411e+00  3.69819800e+00
  3.69913401e+00  3.75264112e+00  3.76544663e+00  3.80218726e+00
  3.84917765e+00  3.86037451e+00  3.86314385e+00  3.89724996e+00
  3.91807716e+00  3.96023118e+00  3.96981473e+00  4.02947725e+00
  4.04576323e+00  4.06024375e+00  4.07839089e+00  4.09479896e+00
  4.15804710e+00  4.25173891e+00  4.27838688e+00  4.29056357e+00
  4.29467615e+00  4.39073714e+00  4.39258756e+00  4.42931267e+00
  4.44137871e+00  4.50279489e+00  4.52024894e+00  4.52189425e+00
  4.65697814e+00  4.67476104e+00  4.68216563e+00  4.70718999e+00
  4.77490259e+00  4.82392602e+00  4.83417565e+00  4.94997024e+00
  5.01318276e+00  5.05562246e+00  5.08493117e+00  5.14667325e+00
  5.16216697e+00  5.32762061e+00  5.33853010e+00  5.39985344e+00
  5.44337038e+00  5.48465360e+00  5.49210197e+00  5.53345360e+00
  5.58682803e+00  5.61236564e+00  5.61349045e+00  5.69069922e+00
  5.74969350e+00  5.75761208e+00  5.85234062e+00  5.88023645e+00
  5.98672172e+00  6.00166015e+00  6.09093537e+00  6.11773259e+00
  6.12450773e+00  6.14844553e+00  6.20493980e+00  6.21372453e+00
  6.28743677e+00  6.39565252e+00  6.45306408e+00  6.46200715e+00
  6.46726572e+00  6.59507684e+00  6.64777422e+00  6.72089405e+00
  6.80268390e+00  6.84833852e+00  6.90873254e+00  6.97720162e+00
  7.00415248e+00  7.04787526e+00  7.10498978e+00  7.20018931e+00
  7.22934531e+00  7.30361610e+00  7.32345929e+00  7.35255907e+00
  7.41977618e+00  7.45280028e+00  7.52200740e+00  7.52896767e+00
  7.73304010e+00  7.76776255e+00  7.92076302e+00  7.99196006e+00
  8.08732755e+00  8.46471883e+00  1.10538831e+01  1.30549834e+01
  1.33369665e+01  1.40339175e+01  1.58797980e+01  1.73364331e+01]
E1 = -1361.9904546560185  E_coul = 549.9955579483792
cycle= 7 E= -400.16761763363  delta_E= -4.44e-05  |g|= 0.00167  |ddm|= 0.0243
    CPU time for cycle= 7     43.74 sec, wall time      1.38 sec
diis-norm(errvec)=0.00842993
diis-c [-5.16521138e-05 -2.03330658e-03 -1.13394128e-03  2.80721692e-02
  1.38651319e-02 -1.96107082e-01 -2.55825189e-02  1.18291955e+00]
  HOMO = -0.118162906433516  LUMO = -0.000369584100117147
  mo_energy =
[-2.06511784e+01 -2.06503574e+01 -2.05832266e+01 -1.14535798e+01
 -1.13140146e+01 -1.13129698e+01 -2.43926601e+00 -2.43695273e+00
 -2.42803564e+00 -2.42729068e+00 -2.42671621e+00 -2.41790416e+00
 -2.41671436e+00 -2.41628126e+00 -1.64211074e+00 -1.48976083e+00
 -1.47514076e+00 -1.13506519e+00 -9.89496008e-01 -9.02102202e-01
 -8.36513317e-01 -8.09502704e-01 -7.53854758e-01 -7.25620901e-01
 -6.88880680e-01 -6.84148808e-01 -6.16517603e-01 -5.90151027e-01
 -5.45862512e-01 -5.30723634e-01 -5.10470832e-01 -2.35631193e-01
 -1.82092315e-01 -1.60594074e-01 -1.18162906e-01 -3.69584100e-04
  1.78097234e-02  2.01929793e-02  2.14693943e-02  2.85164933e-02
  3.68466633e-02  4.07608817e-02  4.17183611e-02  4.23707617e-02
  4.99388790e-02  5.26378140e-02  5.73362301e-02  6.17322291e-02
  6.54915444e-02  6.78297472e-02  7.06512059e-02  7.47956439e-02
  7.64181763e-02  7.70468490e-02  8.33405196e-02  8.40388955e-02
  9.17644370e-02  9.26134295e-02  9.39920503e-02  9.55662428e-02
  9.63493168e-02  1.04004933e-01  1.09062275e-01  1.10178799e-01
  1.13918626e-01  1.22661514e-01  1.28296175e-01  1.28774461e-01
  1.33212466e-01  1.43365759e-01  1.44794487e-01  1.49547343e-01
  1.57292964e-01  1.59289105e-01  1.63080867e-01  1.68257864e-01
  1.73708006e-01  1.80129374e-01  1.92641438e-01  1.94839845e-01
  1.98542473e-01  1.99501482e-01  2.02438244e-01  2.05512365e-01
  2.10361842e-01  2.15375418e-01  2.16122272e-01  2.17118843e-01
  2.19077802e-01  2.28224819e-01  2.30193354e-01  2.36332955e-01
  2.40750736e-01  2.46538544e-01  2.50405013e-01  2.51949632e-01
  2.58824870e-01  2.62828726e-01  2.66778694e-01  2.71073477e-01
  2.73224953e-01  2.79814174e-01  2.84298032e-01  2.99131733e-01
  3.00694499e-01  3.02570550e-01  3.13109784e-01  3.16556808e-01
  3.19494975e-01  3.21861329e-01  3.25324884e-01  3.34072427e-01
  3.34783727e-01  3.40853286e-01  3.45231912e-01  3.48553154e-01
  3.49895919e-01  3.52805945e-01  3.62338277e-01  3.63009679e-01
  3.79038249e-01  3.80252248e-01  3.95175704e-01  3.97790215e-01
  4.00227343e-01  4.02186794e-01  4.07787436e-01  4.15390911e-01
  4.17186332e-01  4.21071687e-01  4.23970755e-01  4.25450413e-01
  4.34466862e-01  4.38082979e-01  4.40217735e-01  4.44540351e-01
  4.50344899e-01  4.56685228e-01  4.58554087e-01  4.62814403e-01
  4.71056515e-01  4.76659352e-01  4.87022385e-01  4.89064221e-01
  4.94838344e-01  4.98580785e-01  5.01801878e-01  5.07167478e-01
  5.17213753e-01  5.19802040e-01  5.21588594e-01  5.28340707e-01
  5.29773265e-01  5.33617005e-01  5.41459799e-01  5.46170474e-01
  5.48046487e-01  5.55093393e-01  5.57050109e-01  5.61054952e-01
  5.66609214e-01  5.69267799e-01  5.72326889e-01  5.81886809e-01
  5.84578395e-01  5.91184882e-01  6.00981963e-01  6.05897057e-01
  6.16146505e-01  6.19557045e-01  6.28199627e-01  6.34263390e-01
  6.42828929e-01  6.52761391e-01  6.58621413e-01  6.63798243e-01
  6.66826054e-01  6.86313434e-01  6.91043597e-01  6.94019175e-01
  6.95815553e-01  7.07343767e-01  7.10323399e-01  7.22992192e-01
  7.27950518e-01  7.31880906e-01  7.41047676e-01  7.44487276e-01
  7.47112936e-01  7.56763894e-01  7.57999826e-01  7.64049241e-01
  7.67357808e-01  7.71562293e-01  7.73263322e-01  7.76839281e-01
  7.78687629e-01  7.79536925e-01  7.84189999e-01  7.89152979e-01
  7.92460315e-01  7.94642038e-01  8.00149817e-01  8.02064228e-01
  8.05049627e-01  8.09844584e-01  8.13973848e-01  8.16345937e-01
  8.20251183e-01  8.21289162e-01  8.24301022e-01  8.42489840e-01
  8.49259703e-01  8.51284666e-01  8.54317749e-01  8.59728790e-01
  8.68798529e-01  8.73669759e-01  8.76074607e-01  8.79488887e-01
  8.82103575e-01  8.88420560e-01  8.96383037e-01  9.01008935e-01
  9.02785337e-01  9.09411665e-01  9.18040712e-01  9.19684412e-01
  9.21216551e-01  9.34985025e-01  9.36781258e-01  9.37634148e-01
  9.42406329e-01  9.46939398e-01  9.50104274e-01  9.55719155e-01
  9.57185763e-01  9.65682544e-01  9.71765328e-01  9.75489137e-01
  9.82157096e-01  9.90372339e-01  1.00146524e+00  1.00313699e+00
  1.00780837e+00  1.01491674e+00  1.01733688e+00  1.01829619e+00
[...]
  1.12201812e+00  1.13206142e+00  1.14208484e+00  1.14687740e+00
  1.14963917e+00  1.15462393e+00  1.15861959e+00  1.16487158e+00
  1.17886131e+00  1.18378674e+00  1.19033094e+00  1.19245040e+00
  1.19903492e+00  1.20272654e+00  1.21066195e+00  1.22158239e+00
  1.22188460e+00  1.22956770e+00  1.24017410e+00  1.24757540e+00
  1.24863664e+00  1.25514978e+00  1.27248812e+00  1.27429996e+00
  1.28514283e+00  1.28615928e+00  1.29002160e+00  1.30081081e+00
  1.30296504e+00  1.30759302e+00  1.31483066e+00  1.32272361e+00
  1.32632117e+00  1.34260586e+00  1.36837045e+00  1.37925306e+00
  1.39461759e+00  1.39681463e+00  1.40956817e+00  1.41989603e+00
  1.42762275e+00  1.45800625e+00  1.50608273e+00  1.51207007e+00
  1.52472306e+00  1.57133527e+00  1.57847927e+00  1.61618113e+00
  1.63027193e+00  1.66156899e+00  1.71960585e+00  1.77627249e+00
  1.80033116e+00  1.86850665e+00  1.87604404e+00  1.91149623e+00
  1.97134442e+00  1.99827704e+00  2.07227169e+00  2.09995576e+00
  2.15661135e+00  2.22965300e+00  2.27574742e+00  2.32715702e+00
  2.36368298e+00  2.41850571e+00  2.45079430e+00  2.47092196e+00
  2.50450641e+00  2.53323765e+00  2.60608459e+00  2.65227475e+00
  2.67072497e+00  2.70507434e+00  2.74710393e+00  2.78573181e+00
  2.83102894e+00  2.84855207e+00  2.85887211e+00  2.87522381e+00
  2.95210026e+00  2.97255430e+00  3.00628226e+00  3.05308373e+00
  3.08407432e+00  3.11944002e+00  3.13232484e+00  3.18392340e+00
  3.20004266e+00  3.22493533e+00  3.22942372e+00  3.25878390e+00
  3.29452229e+00  3.29737240e+00  3.31458215e+00  3.31671123e+00
  3.34687459e+00  3.35208141e+00  3.37845423e+00  3.41073597e+00
  3.43998141e+00  3.45411696e+00  3.47161403e+00  3.47637822e+00
  3.52454826e+00  3.52772453e+00  3.53655073e+00  3.54496869e+00
  3.55752847e+00  3.61338066e+00  3.67424258e+00  3.69821709e+00
  3.69916627e+00  3.75266220e+00  3.76546648e+00  3.80219821e+00
  3.84919434e+00  3.86046481e+00  3.86326638e+00  3.89737188e+00
  3.91812100e+00  3.96027412e+00  3.96994664e+00  4.02960842e+00
  4.04586751e+00  4.06036700e+00  4.07843108e+00  4.09488238e+00
  4.15810164e+00  4.25183636e+00  4.27852945e+00  4.29061040e+00
  4.29478528e+00  4.39082814e+00  4.39266263e+00  4.42937775e+00
  4.44149380e+00  4.50288502e+00  4.52037019e+00  4.52206153e+00
  4.65704238e+00  4.67483266e+00  4.68218140e+00  4.70708337e+00
  4.77479365e+00  4.82386448e+00  4.83419506e+00  4.94999311e+00
  5.01326321e+00  5.05564059e+00  5.08496335e+00  5.14672312e+00
  5.16210205e+00  5.32760106e+00  5.33852837e+00  5.39995175e+00
  5.44345628e+00  5.48461432e+00  5.49208282e+00  5.53353777e+00
  5.58672922e+00  5.61241152e+00  5.61337835e+00  5.69075506e+00
  5.74967467e+00  5.75766475e+00  5.85234867e+00  5.88021527e+00
  5.98667719e+00  6.00165649e+00  6.09091006e+00  6.11762949e+00
  6.12455477e+00  6.14840963e+00  6.20476862e+00  6.21367889e+00
  6.28742692e+00  6.39553508e+00  6.45303332e+00  6.46186056e+00
  6.46718953e+00  6.59499014e+00  6.64765942e+00  6.72074952e+00
  6.80250364e+00  6.84815744e+00  6.90858833e+00  6.97702699e+00
  7.00394876e+00  7.04771010e+00  7.10481775e+00  7.19997533e+00
  7.22914955e+00  7.30341677e+00  7.32322025e+00  7.35234272e+00
  7.41960441e+00  7.45260028e+00  7.52181479e+00  7.52877219e+00
  7.73283316e+00  7.76756447e+00  7.92056789e+00  7.99175252e+00
  8.08712935e+00  8.46456852e+00  1.10537187e+01  1.30548507e+01
  1.33366865e+01  1.40338055e+01  1.58797484e+01  1.73362680e+01]
E1 = -1362.0027896774527  E_coul = 550.0078786351106
cycle= 15 E= -400.167631968333  delta_E= -1.69e-09  |g|= 1.14e-05  |ddm|= 0.000239
    CPU time for cycle= 15     43.84 sec, wall time      1.38 sec
diis-norm(errvec)=5.06156e-05
diis-c [-2.01600876e-09 -9.89904676e-03  2.14347906e-02  4.22046795e-02
 -7.07446935e-02 -1.03557407e-01  1.31446212e-01  9.87984587e-01
  1.13087873e-03]
  HOMO = -0.118152455304947  LUMO = -0.00037520408210452
  mo_energy =
[-2.06509566e+01 -2.06501330e+01 -2.05829387e+01 -1.14534962e+01
 -1.13138873e+01 -1.13128422e+01 -2.44009449e+00 -2.43665543e+00
 -2.42805919e+00 -2.42740686e+00 -2.42650493e+00 -2.41817964e+00
 -2.41668835e+00 -2.41572101e+00 -1.64194404e+00 -1.48958891e+00
 -1.47498879e+00 -1.13494356e+00 -9.89380796e-01 -9.01967342e-01
 -8.36384244e-01 -8.09350649e-01 -7.53755039e-01 -7.25460212e-01
 -6.88764799e-01 -6.84022391e-01 -6.16367007e-01 -5.90031316e-01
 -5.45669931e-01 -5.30565532e-01 -5.10349443e-01 -2.35623233e-01
 -1.82050307e-01 -1.60578403e-01 -1.18152455e-01 -3.75204082e-04
  1.77924753e-02  2.02385005e-02  2.14154956e-02  2.85295802e-02
  3.68521400e-02  4.07785755e-02  4.17315285e-02  4.23647557e-02
  4.99508775e-02  5.26341479e-02  5.73444876e-02  6.17011752e-02
  6.55154645e-02  6.78289848e-02  7.06272682e-02  7.47831311e-02
  7.64171796e-02  7.70562469e-02  8.33499505e-02  8.40593044e-02
  9.17792043e-02  9.26395774e-02  9.40000535e-02  9.56039817e-02
  9.63216579e-02  1.04024928e-01  1.09062285e-01  1.10195003e-01
  1.13910250e-01  1.22683153e-01  1.28299696e-01  1.28801321e-01
  1.33221676e-01  1.43391715e-01  1.44797893e-01  1.49518034e-01
  1.57294408e-01  1.59360406e-01  1.63116395e-01  1.68279629e-01
  1.73720448e-01  1.80130761e-01  1.92667796e-01  1.94800276e-01
  1.98594880e-01  1.99526235e-01  2.02443072e-01  2.05537681e-01
  2.10384170e-01  2.15339506e-01  2.16156920e-01  2.17143267e-01
  2.19115715e-01  2.28246924e-01  2.30204594e-01  2.36341339e-01
  2.40769641e-01  2.46485817e-01  2.50428657e-01  2.51937448e-01
  2.58867138e-01  2.62837267e-01  2.66848334e-01  2.71063278e-01
  2.73298482e-01  2.79842297e-01  2.84310038e-01  2.99144699e-01
  3.00672697e-01  3.02565151e-01  3.13130176e-01  3.16621503e-01
  3.19527840e-01  3.21884272e-01  3.25369027e-01  3.34142106e-01
  3.34778701e-01  3.40871885e-01  3.45213816e-01  3.48565913e-01
  3.49905130e-01  3.52805900e-01  3.62330053e-01  3.63052226e-01
  3.79090386e-01  3.80275111e-01  3.95123544e-01  3.97803588e-01
  4.00279581e-01  4.02201452e-01  4.07780811e-01  4.15311362e-01
  4.17191337e-01  4.21146654e-01  4.23987936e-01  4.25451775e-01
  4.34460335e-01  4.38136592e-01  4.40271104e-01  4.44569667e-01
  4.50366459e-01  4.56695483e-01  4.58618849e-01  4.62821618e-01
  4.71090981e-01  4.76662666e-01  4.87003864e-01  4.89073585e-01
  4.94824025e-01  4.98652589e-01  5.01878578e-01  5.07143696e-01
  5.17195774e-01  5.19763634e-01  5.21601341e-01  5.28369704e-01
  5.29786438e-01  5.33670577e-01  5.41513938e-01  5.46174565e-01
  5.48147576e-01  5.55090321e-01  5.57093577e-01  5.61101984e-01
  5.66633134e-01  5.69336773e-01  5.72317390e-01  5.81907255e-01
  5.84574316e-01  5.91225301e-01  6.01012595e-01  6.05909743e-01
  6.16152323e-01  6.19600427e-01  6.28274651e-01  6.34255228e-01
  6.42886394e-01  6.52814432e-01  6.58658036e-01  6.63823495e-01
  6.66890872e-01  6.86295532e-01  6.91122973e-01  6.94023348e-01
  6.95865855e-01  7.07406449e-01  7.10365234e-01  7.23022184e-01
  7.27915963e-01  7.31896331e-01  7.41043032e-01  7.44467022e-01
  7.47119825e-01  7.56757933e-01  7.58009025e-01  7.64078567e-01
  7.67345685e-01  7.71682238e-01  7.73309087e-01  7.76855330e-01
  7.78647965e-01  7.79544779e-01  7.84243768e-01  7.89153871e-01
  7.92488916e-01  7.94665330e-01  8.00135055e-01  8.02161077e-01
  8.05026192e-01  8.09870950e-01  8.13935801e-01  8.16367335e-01
  8.20307734e-01  8.21262775e-01  8.24313975e-01  8.42524548e-01
  8.49310180e-01  8.51322677e-01  8.54347316e-01  8.59821927e-01
  8.68840189e-01  8.73646318e-01  8.76048166e-01  8.79568131e-01
  8.82133400e-01  8.88446390e-01  8.96484868e-01  9.01077339e-01
  9.02780520e-01  9.09351834e-01  9.18111093e-01  9.19667433e-01
  9.21273351e-01  9.35014285e-01  9.36772302e-01  9.37636022e-01
  9.42469532e-01  9.46942748e-01  9.50193073e-01  9.55714543e-01
  9.57187167e-01  9.65716671e-01  9.71749737e-01  9.75465606e-01
  9.82210047e-01  9.90351906e-01  1.00142612e+00  1.00318039e+00
  1.00781612e+00  1.01495620e+00  1.01740265e+00  1.01832510e+00
  1.02729044e+00  1.02913535e+00  1.03550092e+00  1.04213841e+00
  1.04633269e+00  1.05161569e+00  1.05715709e+00  1.06134909e+00
  1.06253480e+00  1.06330167e+00  1.07248139e+00  1.09127146e+00
  1.10162250e+00  1.10284087e+00  1.10914871e+00  1.11581950e+00
  1.12201824e+00  1.13206143e+00  1.14208478e+00  1.14687736e+00
  1.14963926e+00  1.15462377e+00  1.15861959e+00  1.16487167e+00
  1.17886101e+00  1.18378671e+00  1.19033097e+00  1.19245041e+00
  1.19903457e+00  1.20272660e+00  1.21066167e+00  1.22158219e+00
  1.22188441e+00  1.22956753e+00  1.24017397e+00  1.24757538e+00
  1.24863647e+00  1.25514965e+00  1.27248790e+00  1.27429955e+00
  1.28514292e+00  1.28615897e+00  1.29002135e+00  1.30081049e+00
  1.30296446e+00  1.30759297e+00  1.31483017e+00  1.32272357e+00
  1.32632072e+00  1.34260568e+00  1.36837012e+00  1.37925272e+00
  1.39461722e+00  1.39681420e+00  1.40956785e+00  1.41989578e+00
  1.42762247e+00  1.45800586e+00  1.50608238e+00  1.51206978e+00
  1.52472287e+00  1.57133495e+00  1.57847881e+00  1.61618139e+00
  1.63027148e+00  1.66156886e+00  1.71960572e+00  1.77627126e+00
  1.80033066e+00  1.86850635e+00  1.87604381e+00  1.91149587e+00
  1.97134375e+00  1.99827727e+00  2.07227200e+00  2.09995497e+00
  2.15661128e+00  2.22965279e+00  2.27574815e+00  2.32715737e+00
  2.36368315e+00  2.41850542e+00  2.45079427e+00  2.47092199e+00
  2.50450597e+00  2.53323768e+00  2.60608439e+00  2.65227418e+00
  2.67072446e+00  2.70507380e+00  2.74710316e+00  2.78573119e+00
  2.83102847e+00  2.84855193e+00  2.85887129e+00  2.87522292e+00
  2.95209998e+00  2.97255387e+00  3.00628141e+00  3.05308287e+00
  3.08407386e+00  3.11943919e+00  3.13232447e+00  3.18392276e+00
  3.20004230e+00  3.22493545e+00  3.22942287e+00  3.25878345e+00
  3.29452166e+00  3.29737180e+00  3.31458180e+00  3.31671081e+00
  3.34687399e+00  3.35208119e+00  3.37845385e+00  3.41073550e+00
  3.43998087e+00  3.45411674e+00  3.47161340e+00  3.47637789e+00
  3.52454817e+00  3.52772459e+00  3.53655076e+00  3.54496866e+00
  3.55752837e+00  3.61338055e+00  3.67424249e+00  3.69821718e+00
  3.69916544e+00  3.75266153e+00  3.76546619e+00  3.80219824e+00
  3.84919369e+00  3.86046458e+00  3.86326605e+00  3.89737161e+00
  3.91812070e+00  3.96027415e+00  3.96994625e+00  4.02960806e+00
  4.04586726e+00  4.06036669e+00  4.07843107e+00  4.09488224e+00
  4.15810141e+00  4.25183622e+00  4.27852904e+00  4.29061086e+00
  4.29478501e+00  4.39082826e+00  4.39266229e+00  4.42937729e+00
  4.44149340e+00  4.50288502e+00  4.52036973e+00  4.52206134e+00
  4.65704196e+00  4.67483185e+00  4.68218090e+00  4.70708165e+00
  4.77479256e+00  4.82386436e+00  4.83419554e+00  4.94999263e+00
  5.01326308e+00  5.05564072e+00  5.08496323e+00  5.14672280e+00
  5.16210191e+00  5.32760117e+00  5.33852836e+00  5.39995117e+00
  5.44345593e+00  5.48461375e+00  5.49208298e+00  5.53353729e+00
  5.58672732e+00  5.61241066e+00  5.61337653e+00  5.69075464e+00
  5.74967469e+00  5.75766432e+00  5.85234874e+00  5.88021524e+00
  5.98667787e+00  6.00165593e+00  6.09091036e+00  6.11762873e+00
  6.12455423e+00  6.14840973e+00  6.20476946e+00  6.21367892e+00
  6.28742693e+00  6.39553611e+00  6.45303355e+00  6.46186167e+00
  6.46719033e+00  6.59499078e+00  6.64766052e+00  6.72074960e+00
  6.80250328e+00  6.84815773e+00  6.90858883e+00  6.97702557e+00
  7.00394664e+00  7.04770973e+00  7.10481730e+00  7.19997649e+00
  7.22915112e+00  7.30341826e+00  7.32322266e+00  7.35234473e+00
  7.41960310e+00  7.45260143e+00  7.52181467e+00  7.52877448e+00
  7.73283331e+00  7.76756678e+00  7.92056758e+00  7.99175346e+00
  8.08713142e+00  8.46456831e+00  1.10537197e+01  1.30548502e+01
  1.33366894e+01  1.40338050e+01  1.58797466e+01  1.73362668e+01]
E1 = -1362.0027920907232  E_coul = 550.0078810480687
cycle= 16 E= -400.167631968646  delta_E= -3.12e-10  |g|= 6.54e-06  |ddm|= 7.56e-05
    CPU time for cycle= 16     46.45 sec, wall time      1.47 sec
  HOMO = -0.118152426030259  LUMO = -0.000375181547892276
  mo_energy =
[-2.06509609e+01 -2.06501377e+01 -2.05829361e+01 -1.14534964e+01
 -1.13138868e+01 -1.13128417e+01 -2.44009469e+00 -2.43665518e+00
 -2.42805937e+00 -2.42740692e+00 -2.42650479e+00 -2.41817928e+00
 -2.41668816e+00 -2.41572106e+00 -1.64194514e+00 -1.48958840e+00
 -1.47499034e+00 -1.13494377e+00 -9.89381485e-01 -9.01968393e-01
 -8.36384797e-01 -8.09350676e-01 -7.53755296e-01 -7.25460041e-01
 -6.88764642e-01 -6.84023115e-01 -6.16368721e-01 -5.90031775e-01
 -5.45669467e-01 -5.30565606e-01 -5.10350158e-01 -2.35623012e-01
 -1.82050206e-01 -1.60578380e-01 -1.18152426e-01 -3.75181548e-04
  1.77925259e-02  2.02386033e-02  2.14154459e-02  2.85295068e-02
  3.68521611e-02  4.07785979e-02  4.17315178e-02  4.23647645e-02
  4.99508856e-02  5.26341413e-02  5.73445159e-02  6.17011533e-02
  6.55154658e-02  6.78289855e-02  7.06272626e-02  7.47831757e-02
  7.64171858e-02  7.70563322e-02  8.33499398e-02  8.40593312e-02
  9.17792527e-02  9.26395742e-02  9.40000947e-02  9.56040157e-02
  9.63216714e-02  1.04024927e-01  1.09062289e-01  1.10195023e-01
  1.13910237e-01  1.22683240e-01  1.28299689e-01  1.28801360e-01
  1.33221693e-01  1.43391754e-01  1.44797905e-01  1.49518041e-01
  1.57294423e-01  1.59360496e-01  1.63116421e-01  1.68279715e-01
  1.73720497e-01  1.80130750e-01  1.92667833e-01  1.94800285e-01
  1.98594862e-01  1.99526210e-01  2.02443089e-01  2.05537679e-01
  2.10384199e-01  2.15339489e-01  2.16156872e-01  2.17143294e-01
  2.19115734e-01  2.28246954e-01  2.30204611e-01  2.36341357e-01
  2.40769649e-01  2.46485846e-01  2.50428643e-01  2.51937446e-01
  2.58867181e-01  2.62837345e-01  2.66848420e-01  2.71063313e-01
  2.73298556e-01  2.79842336e-01  2.84310013e-01  2.99144711e-01
  3.00672726e-01  3.02565130e-01  3.13130202e-01  3.16621481e-01
  3.19527854e-01  3.21884321e-01  3.25369036e-01  3.34142134e-01
  3.34778721e-01  3.40871836e-01  3.45213800e-01  3.48565979e-01
  3.49905115e-01  3.52805907e-01  3.62330061e-01  3.63052246e-01
  3.79090479e-01  3.80275168e-01  3.95123483e-01  3.97803641e-01
  4.00279579e-01  4.02201518e-01  4.07780814e-01  4.15311346e-01
  4.17191380e-01  4.21146636e-01  4.23987890e-01  4.25451784e-01
  4.34460445e-01  4.38136665e-01  4.40271061e-01  4.44569722e-01
  4.50366512e-01  4.56695495e-01  4.58618908e-01  4.62821590e-01
  4.71091005e-01  4.76662724e-01  4.87003878e-01  4.89073590e-01
  4.94824005e-01  4.98652657e-01  5.01878616e-01  5.07143692e-01
  5.17195802e-01  5.19763689e-01  5.21601336e-01  5.28369713e-01
  5.29786424e-01  5.33670579e-01  5.41513916e-01  5.46174540e-01
  5.48147610e-01  5.55090345e-01  5.57093528e-01  5.61102026e-01
  5.66633123e-01  5.69336777e-01  5.72317373e-01  5.81907258e-01
  5.84574327e-01  5.91225344e-01  6.01012648e-01  6.05909692e-01
  6.16152351e-01  6.19600501e-01  6.28274617e-01  6.34255269e-01
  6.42886372e-01  6.52814489e-01  6.58658025e-01  6.63823531e-01
  6.66890769e-01  6.86295563e-01  6.91122895e-01  6.94023464e-01
  6.95865825e-01  7.07406252e-01  7.10365280e-01  7.23022146e-01
  7.27915992e-01  7.31896386e-01  7.41043035e-01  7.44467004e-01
  7.47119907e-01  7.56757975e-01  7.58009026e-01  7.64078566e-01
  7.67345708e-01  7.71682223e-01  7.73309013e-01  7.76855283e-01
  7.78648008e-01  7.79544771e-01  7.84243786e-01  7.89153957e-01
  7.92488999e-01  7.94665347e-01  8.00135104e-01  8.02161119e-01
  8.05026253e-01  8.09870983e-01  8.13935870e-01  8.16367395e-01
  8.20307833e-01  8.21262777e-01  8.24313899e-01  8.42524629e-01
  8.49310234e-01  8.51322691e-01  8.54347265e-01  8.59821916e-01
  8.68840226e-01  8.73646364e-01  8.76048230e-01  8.79568164e-01
  8.82133396e-01  8.88446471e-01  8.96484808e-01  9.01077373e-01
  9.02780464e-01  9.09351900e-01  9.18111103e-01  9.19667429e-01
  9.21273302e-01  9.35014231e-01  9.36772260e-01  9.37636043e-01
  9.42469608e-01  9.46942774e-01  9.50193102e-01  9.55714504e-01
  9.57187180e-01  9.65716710e-01  9.71749772e-01  9.75465648e-01
  9.82210027e-01  9.90351948e-01  1.00142618e+00  1.00318041e+00
  1.00781615e+00  1.01495624e+00  1.01740263e+00  1.01832514e+00
  1.02729049e+00  1.02913542e+00  1.03550092e+00  1.04213839e+00
  1.04633270e+00  1.05161579e+00  1.05715706e+00  1.06134910e+00
  1.06253484e+00  1.06330176e+00  1.07248141e+00  1.09127150e+00
  1.10162250e+00  1.10284091e+00  1.10914861e+00  1.11581953e+00
  1.12201823e+00  1.13206148e+00  1.14208488e+00  1.14687739e+00
  1.14963933e+00  1.15462384e+00  1.15861965e+00  1.16487178e+00
  1.17886109e+00  1.18378674e+00  1.19033102e+00  1.19245052e+00
  1.19903463e+00  1.20272673e+00  1.21066171e+00  1.22158217e+00
  1.22188438e+00  1.22956763e+00  1.24017401e+00  1.24757542e+00
  1.24863657e+00  1.25514970e+00  1.27248794e+00  1.27429956e+00
  1.28514288e+00  1.28615901e+00  1.29002144e+00  1.30081055e+00
  1.30296455e+00  1.30759298e+00  1.31483024e+00  1.32272361e+00
  1.32632072e+00  1.34260575e+00  1.36837016e+00  1.37925279e+00
  1.39461725e+00  1.39681429e+00  1.40956775e+00  1.41989582e+00
  1.42762232e+00  1.45800585e+00  1.50608233e+00  1.51206964e+00
  1.52472279e+00  1.57133488e+00  1.57847880e+00  1.61618097e+00
  1.63027144e+00  1.66156865e+00  1.71960545e+00  1.77627164e+00
  1.80033071e+00  1.86850617e+00  1.87604362e+00  1.91149574e+00
  1.97134379e+00  1.99827670e+00  2.07227141e+00  2.09995512e+00
  2.15661091e+00  2.22965255e+00  2.27574723e+00  2.32715683e+00
  2.36368267e+00  2.41850528e+00  2.45079392e+00  2.47092157e+00
  2.50450581e+00  2.53323723e+00  2.60608406e+00  2.65227418e+00
  2.67072436e+00  2.70507362e+00  2.74710315e+00  2.78573119e+00
  2.83102832e+00  2.84855146e+00  2.85887130e+00  2.87522294e+00
  2.95210002e+00  2.97255371e+00  3.00628140e+00  3.05308287e+00
  3.08407374e+00  3.11943918e+00  3.13232426e+00  3.18392269e+00
  3.20004213e+00  3.22493548e+00  3.22942286e+00  3.25878356e+00
  3.29452156e+00  3.29737169e+00  3.31458170e+00  3.31671076e+00
  3.34687388e+00  3.35208111e+00  3.37845356e+00  3.41073532e+00
  3.43998076e+00  3.45411669e+00  3.47161336e+00  3.47637785e+00
  3.52454813e+00  3.52772429e+00  3.53655053e+00  3.54496853e+00
  3.55752797e+00  3.61338021e+00  3.67424217e+00  3.69821678e+00
  3.69916548e+00  3.75266157e+00  3.76546586e+00  3.80219785e+00
  3.84919369e+00  3.86046441e+00  3.86326599e+00  3.89737151e+00
  3.91812053e+00  3.96027375e+00  3.96994624e+00  4.02960802e+00
  4.04586716e+00  4.06036660e+00  4.07843080e+00  4.09488204e+00
  4.15810121e+00  4.25183604e+00  4.27852906e+00  4.29061026e+00
  4.29478490e+00  4.39082796e+00  4.39266219e+00  4.42937716e+00
  4.44149339e+00  4.50288472e+00  4.52036969e+00  4.52206131e+00
  4.65704184e+00  4.67483210e+00  4.68218076e+00  4.70708232e+00
  4.77479278e+00  4.82386399e+00  4.83419487e+00  4.94999237e+00
  5.01326278e+00  5.05564016e+00  5.08496288e+00  5.14672257e+00
  5.16210158e+00  5.32760061e+00  5.33852782e+00  5.39995116e+00
  5.44345577e+00  5.48461363e+00  5.49208243e+00  5.53353720e+00
  5.58672815e+00  5.61241076e+00  5.61337730e+00  5.69075452e+00
  5.74967416e+00  5.75766413e+00  5.85234821e+00  5.88021483e+00
  5.98667692e+00  6.00165582e+00  6.09090966e+00  6.11762869e+00
  6.12455404e+00  6.14840905e+00  6.20476828e+00  6.21367841e+00
  6.28742639e+00  6.39553488e+00  6.45303286e+00  6.46186041e+00
  6.46718927e+00  6.59498986e+00  6.64765936e+00  6.72074904e+00
  6.80250297e+00  6.84815690e+00  6.90858798e+00  6.97702592e+00
  7.00394744e+00  7.04770948e+00  7.10481710e+00  7.19997517e+00
  7.22914962e+00  7.30341676e+00  7.32322052e+00  7.35234294e+00
  7.41960338e+00  7.45260016e+00  7.52181413e+00  7.52877251e+00
  7.73283268e+00  7.76756482e+00  7.92056725e+00  7.99175229e+00
  8.08712960e+00  8.46456796e+00  1.10537186e+01  1.30548499e+01
  1.33366870e+01  1.40338047e+01  1.58797468e+01  1.73362672e+01]
E1 = -1362.0028068713998  E_coul = 550.0078958286543
Extra cycle  E= -400.167631968737  delta_E= -9.09e-11  |g|= 4.43e-06  |ddm|= 2.66e-05
    CPU time for scf_cycle   1019.68 sec, wall time     32.26 sec
    CPU time for SCF   1019.72 sec, wall time     32.26 sec
converged SCF energy = -400.167631968737
