#INFO: **** input file is /burg/ccce/users/eav2136/projects/batteries/01_mp2/hf_script.py ****
#!/usr/bin/env python3
from pyscf import gto, scf, mp
import sys
from fileutils import dump
import h5py

mol = gto.Mole()
mol.verbose = 10
mol.atom = f"geom_{sys.argv[1]}.xyz"
mol.basis = "ccpvtz"
mol.unit = "ANG"
mol.build()

mf = scf.RHF(mol)
conv, e_tot, mo_energy, mo_coeff, mo_occ = mf.kernel()

dataout = {}
dataout["e_tot"] = e_tot
dataout["conv"] = conv
dump(dataout, f"data/hf_geom_{sys.argv[1]}.json")

with h5py.File(f"data/hf_geom_{sys.argv[1]}.h5", "w") as f:
    f.create_dataset("mo_energy", data=mo_energy)
    f.create_dataset("mo_coeff", data=mo_coeff)#INFO: ******************** input file end ********************


System: uname_result(system='Linux', node='g144', release='4.18.0-193.el8.x86_64', version='#1 SMP Fri Mar 27 14:35:58 UTC 2020', machine='x86_64')  Threads 32
Python 3.10.12 (main, Jul 29 2023, 11:27:27) [GCC 13.2.0]
numpy 1.25.1  scipy 1.10.1
Date: Fri Jan 19 11:04:44 2024
PySCF version 2.0.1
PySCF path  /burg/berkelbach/users/eav2136/builds/pyscf/projected-cvs/pyscf
GIT ORIG_HEAD 0bfbc692adf3ea63b8a509210433219cd1c472a2
GIT HEAD (branch projected-cvs) e14caaa2dddc538b9be2d86f01e5b456fc92da36

[ENV] PYSCF_TMPDIR /burg/ccce/users/eav2136/projects/batteries/01_mp2/tmp
[ENV] PYSCF_MAX_MEMORY 700000
[CONFIG] DEBUG = False
[CONFIG] MAX_MEMORY = 700000
[CONFIG] TMPDIR = /burg/ccce/users/eav2136/projects/batteries/01_mp2/tmp
[CONFIG] UNIT = angstrom
[CONFIG] VERBOSE = 3
[CONFIG] conf_file = None
[INPUT] verbose = 10
[INPUT] max_memory = 700000 
[INPUT] num. atoms = 36
[INPUT] num. electrons = 124
[INPUT] charge = 0
[INPUT] spin (= nelec alpha-beta = 2S) = 0
[INPUT] symmetry False subgroup None
[INPUT] Mole.unit = ANG
[INPUT]  1 C      4.889700000000   4.599650000000  10.258310000000 AA    9.240193831286   8.692078768856  19.385396400887 Bohr
[INPUT]  2 O      4.870170000000   4.245790000000   8.952570000000 AA    9.203287480073   8.023380282417  16.917905410997 Bohr
[INPUT]  3 C      5.310840000000   5.193710000000   8.233300000000 AA   10.036033091385   9.814689470415  15.558682101382 Bohr
[INPUT]  4 O      5.765780000000   6.111200000000   8.982240000000 AA   10.895745094495  11.548494292442  16.973973585113 Bohr
[INPUT]  5 C      5.774150000000   5.702340000000  10.272330000000 AA   10.911562102157  10.775860869152  19.411890361153 Bohr
[INPUT]  6 O      5.299720000000   5.216150000000   7.112960000000 AA   10.015019336880   9.857094924650  13.441546334986 Bohr
[INPUT]  7 H      5.212360000000   3.798320000000  10.814180000000 AA    9.849932862638   7.177784533458  20.435838461749 Bohr
[INPUT]  8 H      3.953110000000   4.871240000000  10.548100000000 AA    7.470295240279   9.205309487026  19.933020134525 Bohr
[INPUT]  9 H      5.464720000000   6.479910000000  10.867980000000 AA   10.326824147433  12.245255211830  20.537505727251 Bohr
[INPUT] 10 H      6.716790000000   5.418990000000  10.529430000000 AA   12.692893536217  10.240406971757  19.897738947779 Bohr
[INPUT] 11 Li     5.263950000000   5.263950000000   5.263950000000 AA    9.947423833404   9.947423833404   9.947423833404 Bohr
[INPUT] 12 Li     5.263950000000   1.754650000000   5.263950000000 AA    9.947423833404   3.315807944468   9.947423833404 Bohr
[INPUT] 13 Li     8.773250000000   5.263950000000   5.263950000000 AA   16.579039722340   9.947423833404   9.947423833404 Bohr
[INPUT] 14 Li     1.754650000000   5.263950000000   5.263950000000 AA    3.315807944468   9.947423833404   9.947423833404 Bohr
[INPUT] 15 Li     5.263950000000   8.773250000000   5.263950000000 AA    9.947423833404  16.579039722340   9.947423833404 Bohr
[INPUT] 16 Li     7.018600000000   3.509300000000   3.509300000000 AA   13.263231777872   6.631615888936   6.631615888936 Bohr
[INPUT] 17 Li     3.509300000000   3.509300000000   3.509300000000 AA    6.631615888936   6.631615888936   6.631615888936 Bohr
[INPUT] 18 Li     7.018600000000   7.018600000000   3.509300000000 AA   13.263231777872  13.263231777872   6.631615888936 Bohr
[INPUT] 19 Li     3.509300000000   7.018600000000   3.509300000000 AA    6.631615888936  13.263231777872   6.631615888936 Bohr
[INPUT] 20 Li     8.773250000000   1.754650000000   5.263950000000 AA   16.579039722340   3.315807944468   9.947423833404 Bohr
[INPUT] 21 Li     1.754650000000   1.754650000000   5.263950000000 AA    3.315807944468   3.315807944468   9.947423833404 Bohr
[INPUT] 22 Li     8.773250000000   8.773250000000   5.263950000000 AA   16.579039722340  16.579039722340   9.947423833404 Bohr
[INPUT] 23 Li     1.754650000000   8.773250000000   5.263950000000 AA    3.315807944468  16.579039722340   9.947423833404 Bohr
[INPUT] 24 Li     5.263950000000   5.263950000000   1.754650000000 AA    9.947423833404   9.947423833404   3.315807944468 Bohr
[INPUT] 25 Li     5.263950000000   1.754650000000   1.754650000000 AA    9.947423833404   3.315807944468   3.315807944468 Bohr
[INPUT] 26 Li     8.773250000000   5.263950000000   1.754650000000 AA   16.579039722340   9.947423833404   3.315807944468 Bohr
[INPUT] 27 Li     1.754650000000   5.263950000000   1.754650000000 AA    3.315807944468   9.947423833404   3.315807944468 Bohr
[INPUT] 28 Li     5.263950000000   8.773250000000   1.754650000000 AA    9.947423833404  16.579039722340   3.315807944468 Bohr
[INPUT] 29 Li     7.018600000000   0.000000000000   3.509300000000 AA   13.263231777872   0.000000000000   6.631615888936 Bohr
[INPUT] 30 Li     3.509300000000   0.000000000000   3.509300000000 AA    6.631615888936   0.000000000000   6.631615888936 Bohr
[INPUT] 31 Li     0.000000000000   3.509300000000   3.509300000000 AA    0.000000000000   6.631615888936   6.631615888936 Bohr
[INPUT] 32 Li     0.000000000000   7.018600000000   3.509300000000 AA    0.000000000000  13.263231777872   6.631615888936 Bohr
[INPUT] 33 Li     8.773250000000   1.754650000000   1.754650000000 AA   16.579039722340   3.315807944468   3.315807944468 Bohr
[INPUT] 34 Li     1.754650000000   1.754650000000   1.754650000000 AA    3.315807944468   3.315807944468   3.315807944468 Bohr
[INPUT] 35 Li     8.773250000000   8.773250000000   1.754650000000 AA   16.579039722340  16.579039722340   3.315807944468 Bohr
[INPUT] 36 Li     1.754650000000   8.773250000000   1.754650000000 AA    3.315807944468  16.579039722340   3.315807944468 Bohr
[INPUT] ---------------- BASIS SET ---------------- 
[INPUT] l, kappa, [nprim/nctr], expnt,             c_1 c_2 ...
[INPUT] H
[INPUT] 0    0    [3    /1   ]  33.87             0.006068
                                5.095             0.045308
                                1.159             0.202822
[INPUT] 0    0    [1    /1   ]  0.3258               1
[INPUT] 0    0    [1    /1   ]  0.1027               1
[INPUT] 1    0    [1    /1   ]  1.407                1
[INPUT] 1    0    [1    /1   ]  0.388                1
[INPUT] 2    0    [1    /1   ]  1.057                1
[INPUT] C
[INPUT] 0    0    [8    /2   ]  8236              0.000531 -0.000113
                                1235              0.004108 -0.000878
                                280.8             0.021087 -0.00454
                                79.27             0.081853 -0.018133
                                25.59             0.234817 -0.05576
                                8.997             0.434401 -0.126895
                                3.319             0.346129 -0.170352
                                0.3643            -0.008983 0.598684
[INPUT] 0    0    [1    /1   ]  0.9059               1
[INPUT] 0    0    [1    /1   ]  0.1285               1
[INPUT] 1    0    [3    /1   ]  18.71             0.014031
                                4.133             0.086866
                                1.2               0.290216
[INPUT] 1    0    [1    /1   ]  0.3827               1
[INPUT] 1    0    [1    /1   ]  0.1209               1
[INPUT] 2    0    [1    /1   ]  1.097                1
[INPUT] 2    0    [1    /1   ]  0.318                1
[INPUT] 3    0    [1    /1   ]  0.761                1
[INPUT] Li
[INPUT] 0    0    [9    /2   ]  5988              0.000133 -2.1e-05
                                898.9             0.001025 -0.000161
                                205.9             0.005272 -0.00082
                                59.24             0.020929 -0.003326
                                19.87             0.06634 -0.010519
                                7.406             0.165775 -0.028097
                                2.93              0.315038 -0.055936
                                1.189             0.393523 -0.099237
                                0.4798            0.19087 -0.112189
[INPUT] 0    0    [1    /1   ]  0.07509              1
[INPUT] 0    0    [1    /1   ]  0.02832              1
[INPUT] 1    0    [3    /1   ]  3.266             0.00863
                                0.6511            0.047538
                                0.1696            0.209772
[INPUT] 1    0    [1    /1   ]  0.05578              1
[INPUT] 1    0    [1    /1   ]  0.0205               1
[INPUT] 2    0    [1    /1   ]  0.1874               1
[INPUT] 2    0    [1    /1   ]  0.0801               1
[INPUT] 3    0    [1    /1   ]  0.1829               1
[INPUT] O
[INPUT] 0    0    [8    /2   ]  15330             0.000508 -0.000115
                                2299              0.003929 -0.000895
                                522.4             0.020243 -0.004636
                                147.3             0.079181 -0.018724
                                47.55             0.230687 -0.058463
                                16.76             0.433118 -0.136463
                                6.207             0.35026 -0.17574
                                0.6882            -0.008154 0.603418
[INPUT] 0    0    [1    /1   ]  1.752                1
[INPUT] 0    0    [1    /1   ]  0.2384               1
[INPUT] 1    0    [3    /1   ]  34.46             0.015928
                                7.749             0.09974
                                2.28              0.310492
[INPUT] 1    0    [1    /1   ]  0.7156               1
[INPUT] 1    0    [1    /1   ]  0.214                1
[INPUT] 2    0    [1    /1   ]  2.314                1
[INPUT] 2    0    [1    /1   ]  0.645                1
[INPUT] 3    0    [1    /1   ]  1.428                1

nuclear repulsion = 858.855893990579
number of shells = 312
number of NR pGTOs = 1434
number of NR cGTOs = 1016
basis = ccpvtz
ecp = {}
bas 0, expnt(s) = [8.236e+03 1.235e+03 2.808e+02 7.927e+01 2.559e+01 8.997e+00 3.319e+00
 3.643e-01]
bas 1, expnt(s) = [0.9059]
bas 2, expnt(s) = [0.1285]
bas 3, expnt(s) = [18.71   4.133  1.2  ]
bas 4, expnt(s) = [0.3827]
bas 5, expnt(s) = [0.1209]
bas 6, expnt(s) = [1.097]
bas 7, expnt(s) = [0.318]
bas 8, expnt(s) = [0.761]
bas 9, expnt(s) = [1.533e+04 2.299e+03 5.224e+02 1.473e+02 4.755e+01 1.676e+01 6.207e+00
 6.882e-01]
bas 10, expnt(s) = [1.752]
bas 11, expnt(s) = [0.2384]
bas 12, expnt(s) = [34.46   7.749  2.28 ]
bas 13, expnt(s) = [0.7156]
bas 14, expnt(s) = [0.214]
bas 15, expnt(s) = [2.314]
bas 16, expnt(s) = [0.645]
bas 17, expnt(s) = [1.428]
bas 18, expnt(s) = [8.236e+03 1.235e+03 2.808e+02 7.927e+01 2.559e+01 8.997e+00 3.319e+00
 3.643e-01]
bas 19, expnt(s) = [0.9059]
bas 20, expnt(s) = [0.1285]
bas 21, expnt(s) = [18.71   4.133  1.2  ]
bas 22, expnt(s) = [0.3827]
bas 23, expnt(s) = [0.1209]
bas 24, expnt(s) = [1.097]
bas 25, expnt(s) = [0.318]
bas 26, expnt(s) = [0.761]
bas 27, expnt(s) = [1.533e+04 2.299e+03 5.224e+02 1.473e+02 4.755e+01 1.676e+01 6.207e+00
 6.882e-01]
bas 28, expnt(s) = [1.752]
bas 29, expnt(s) = [0.2384]
bas 30, expnt(s) = [34.46   7.749  2.28 ]
bas 31, expnt(s) = [0.7156]
bas 32, expnt(s) = [0.214]
bas 33, expnt(s) = [2.314]
bas 34, expnt(s) = [0.645]
bas 35, expnt(s) = [1.428]
bas 36, expnt(s) = [8.236e+03 1.235e+03 2.808e+02 7.927e+01 2.559e+01 8.997e+00 3.319e+00
 3.643e-01]
bas 37, expnt(s) = [0.9059]
bas 38, expnt(s) = [0.1285]
bas 39, expnt(s) = [18.71   4.133  1.2  ]
bas 40, expnt(s) = [0.3827]
bas 41, expnt(s) = [0.1209]
bas 42, expnt(s) = [1.097]
bas 43, expnt(s) = [0.318]
bas 44, expnt(s) = [0.761]
bas 45, expnt(s) = [1.533e+04 2.299e+03 5.224e+02 1.473e+02 4.755e+01 1.676e+01 6.207e+00
 6.882e-01]
bas 46, expnt(s) = [1.752]
bas 47, expnt(s) = [0.2384]
bas 48, expnt(s) = [34.46   7.749  2.28 ]
bas 49, expnt(s) = [0.7156]
bas 50, expnt(s) = [0.214]
bas 51, expnt(s) = [2.314]
bas 52, expnt(s) = [0.645]
bas 53, expnt(s) = [1.428]
bas 54, expnt(s) = [33.87   5.095  1.159]
bas 55, expnt(s) = [0.3258]
bas 56, expnt(s) = [0.1027]
bas 57, expnt(s) = [1.407]
bas 58, expnt(s) = [0.388]
bas 59, expnt(s) = [1.057]
bas 60, expnt(s) = [33.87   5.095  1.159]
bas 61, expnt(s) = [0.3258]
bas 62, expnt(s) = [0.1027]
bas 63, expnt(s) = [1.407]
bas 64, expnt(s) = [0.388]
bas 65, expnt(s) = [1.057]
bas 66, expnt(s) = [33.87   5.095  1.159]
bas 67, expnt(s) = [0.3258]
bas 68, expnt(s) = [0.1027]
bas 69, expnt(s) = [1.407]
bas 70, expnt(s) = [0.388]
bas 71, expnt(s) = [1.057]
bas 72, expnt(s) = [33.87   5.095  1.159]
bas 73, expnt(s) = [0.3258]
bas 74, expnt(s) = [0.1027]
bas 75, expnt(s) = [1.407]
bas 76, expnt(s) = [0.388]
bas 77, expnt(s) = [1.057]
bas 78, expnt(s) = [5.988e+03 8.989e+02 2.059e+02 5.924e+01 1.987e+01 7.406e+00 2.930e+00
 1.189e+00 4.798e-01]
bas 79, expnt(s) = [0.07509]
bas 80, expnt(s) = [0.02832]
bas 81, expnt(s) = [3.266  0.6511 0.1696]
bas 82, expnt(s) = [0.05578]
bas 83, expnt(s) = [0.0205]
bas 84, expnt(s) = [0.1874]
bas 85, expnt(s) = [0.0801]
bas 86, expnt(s) = [0.1829]
bas 87, expnt(s) = [5.988e+03 8.989e+02 2.059e+02 5.924e+01 1.987e+01 7.406e+00 2.930e+00
 1.189e+00 4.798e-01]
bas 88, expnt(s) = [0.07509]
bas 89, expnt(s) = [0.02832]
bas 90, expnt(s) = [3.266  0.6511 0.1696]
bas 91, expnt(s) = [0.05578]
bas 92, expnt(s) = [0.0205]
bas 93, expnt(s) = [0.1874]
bas 94, expnt(s) = [0.0801]
bas 95, expnt(s) = [0.1829]
bas 96, expnt(s) = [5.988e+03 8.989e+02 2.059e+02 5.924e+01 1.987e+01 7.406e+00 2.930e+00
 1.189e+00 4.798e-01]
bas 97, expnt(s) = [0.07509]
bas 98, expnt(s) = [0.02832]
bas 99, expnt(s) = [3.266  0.6511 0.1696]
bas 100, expnt(s) = [0.05578]
bas 101, expnt(s) = [0.0205]
bas 102, expnt(s) = [0.1874]
bas 103, expnt(s) = [0.0801]
bas 104, expnt(s) = [0.1829]
bas 105, expnt(s) = [5.988e+03 8.989e+02 2.059e+02 5.924e+01 1.987e+01 7.406e+00 2.930e+00
 1.189e+00 4.798e-01]
bas 106, expnt(s) = [0.07509]
bas 107, expnt(s) = [0.02832]
bas 108, expnt(s) = [3.266  0.6511 0.1696]
bas 109, expnt(s) = [0.05578]
bas 110, expnt(s) = [0.0205]
bas 111, expnt(s) = [0.1874]
bas 112, expnt(s) = [0.0801]
bas 113, expnt(s) = [0.1829]
bas 114, expnt(s) = [5.988e+03 8.989e+02 2.059e+02 5.924e+01 1.987e+01 7.406e+00 2.930e+00
 1.189e+00 4.798e-01]
bas 115, expnt(s) = [0.07509]
bas 116, expnt(s) = [0.02832]
bas 117, expnt(s) = [3.266  0.6511 0.1696]
bas 118, expnt(s) = [0.05578]
bas 119, expnt(s) = [0.0205]
bas 120, expnt(s) = [0.1874]
bas 121, expnt(s) = [0.0801]
bas 122, expnt(s) = [0.1829]
bas 123, expnt(s) = [5.988e+03 8.989e+02 2.059e+02 5.924e+01 1.987e+01 7.406e+00 2.930e+00
 1.189e+00 4.798e-01]
bas 124, expnt(s) = [0.07509]
bas 125, expnt(s) = [0.02832]
bas 126, expnt(s) = [3.266  0.6511 0.1696]
bas 127, expnt(s) = [0.05578]
bas 128, expnt(s) = [0.0205]
bas 129, expnt(s) = [0.1874]
bas 130, expnt(s) = [0.0801]
bas 131, expnt(s) = [0.1829]
bas 132, expnt(s) = [5.988e+03 8.989e+02 2.059e+02 5.924e+01 1.987e+01 7.406e+00 2.930e+00
 1.189e+00 4.798e-01]
bas 133, expnt(s) = [0.07509]
bas 134, expnt(s) = [0.02832]
bas 135, expnt(s) = [3.266  0.6511 0.1696]
bas 136, expnt(s) = [0.05578]
bas 137, expnt(s) = [0.0205]
bas 138, expnt(s) = [0.1874]
bas 139, expnt(s) = [0.0801]
bas 140, expnt(s) = [0.1829]
bas 141, expnt(s) = [5.988e+03 8.989e+02 2.059e+02 5.924e+01 1.987e+01 7.406e+00 2.930e+00
 1.189e+00 4.798e-01]
bas 142, expnt(s) = [0.07509]
bas 143, expnt(s) = [0.02832]
bas 144, expnt(s) = [3.266  0.6511 0.1696]
bas 145, expnt(s) = [0.05578]
bas 146, expnt(s) = [0.0205]
bas 147, expnt(s) = [0.1874]
bas 148, expnt(s) = [0.0801]
bas 149, expnt(s) = [0.1829]
bas 150, expnt(s) = [5.988e+03 8.989e+02 2.059e+02 5.924e+01 1.987e+01 7.406e+00 2.930e+00
 1.189e+00 4.798e-01]
bas 151, expnt(s) = [0.07509]
bas 152, expnt(s) = [0.02832]
bas 153, expnt(s) = [3.266  0.6511 0.1696]
bas 154, expnt(s) = [0.05578]
bas 155, expnt(s) = [0.0205]
bas 156, expnt(s) = [0.1874]
bas 157, expnt(s) = [0.0801]
bas 158, expnt(s) = [0.1829]
bas 159, expnt(s) = [5.988e+03 8.989e+02 2.059e+02 5.924e+01 1.987e+01 7.406e+00 2.930e+00
 1.189e+00 4.798e-01]
bas 160, expnt(s) = [0.07509]
bas 161, expnt(s) = [0.02832]
bas 162, expnt(s) = [3.266  0.6511 0.1696]
bas 163, expnt(s) = [0.05578]
bas 164, expnt(s) = [0.0205]
bas 165, expnt(s) = [0.1874]
bas 166, expnt(s) = [0.0801]
bas 167, expnt(s) = [0.1829]
bas 168, expnt(s) = [5.988e+03 8.989e+02 2.059e+02 5.924e+01 1.987e+01 7.406e+00 2.930e+00
 1.189e+00 4.798e-01]
bas 169, expnt(s) = [0.07509]
bas 170, expnt(s) = [0.02832]
bas 171, expnt(s) = [3.266  0.6511 0.1696]
bas 172, expnt(s) = [0.05578]
bas 173, expnt(s) = [0.0205]
bas 174, expnt(s) = [0.1874]
bas 175, expnt(s) = [0.0801]
bas 176, expnt(s) = [0.1829]
bas 177, expnt(s) = [5.988e+03 8.989e+02 2.059e+02 5.924e+01 1.987e+01 7.406e+00 2.930e+00
 1.189e+00 4.798e-01]
bas 178, expnt(s) = [0.07509]
bas 179, expnt(s) = [0.02832]
bas 180, expnt(s) = [3.266  0.6511 0.1696]
bas 181, expnt(s) = [0.05578]
bas 182, expnt(s) = [0.0205]
bas 183, expnt(s) = [0.1874]
bas 184, expnt(s) = [0.0801]
bas 185, expnt(s) = [0.1829]
bas 186, expnt(s) = [5.988e+03 8.989e+02 2.059e+02 5.924e+01 1.987e+01 7.406e+00 2.930e+00
 1.189e+00 4.798e-01]
bas 187, expnt(s) = [0.07509]
bas 188, expnt(s) = [0.02832]
bas 189, expnt(s) = [3.266  0.6511 0.1696]
bas 190, expnt(s) = [0.05578]
bas 191, expnt(s) = [0.0205]
bas 192, expnt(s) = [0.1874]
bas 193, expnt(s) = [0.0801]
bas 194, expnt(s) = [0.1829]
bas 195, expnt(s) = [5.988e+03 8.989e+02 2.059e+02 5.924e+01 1.987e+01 7.406e+00 2.930e+00
 1.189e+00 4.798e-01]
bas 196, expnt(s) = [0.07509]
bas 197, expnt(s) = [0.02832]
bas 198, expnt(s) = [3.266  0.6511 0.1696]
bas 199, expnt(s) = [0.05578]
bas 200, expnt(s) = [0.0205]
bas 201, expnt(s) = [0.1874]
bas 202, expnt(s) = [0.0801]
bas 203, expnt(s) = [0.1829]
bas 204, expnt(s) = [5.988e+03 8.989e+02 2.059e+02 5.924e+01 1.987e+01 7.406e+00 2.930e+00
 1.189e+00 4.798e-01]
bas 205, expnt(s) = [0.07509]
bas 206, expnt(s) = [0.02832]
bas 207, expnt(s) = [3.266  0.6511 0.1696]
bas 208, expnt(s) = [0.05578]
bas 209, expnt(s) = [0.0205]
bas 210, expnt(s) = [0.1874]
bas 211, expnt(s) = [0.0801]
bas 212, expnt(s) = [0.1829]
bas 213, expnt(s) = [5.988e+03 8.989e+02 2.059e+02 5.924e+01 1.987e+01 7.406e+00 2.930e+00
 1.189e+00 4.798e-01]
bas 214, expnt(s) = [0.07509]
bas 215, expnt(s) = [0.02832]
bas 216, expnt(s) = [3.266  0.6511 0.1696]
bas 217, expnt(s) = [0.05578]
bas 218, expnt(s) = [0.0205]
bas 219, expnt(s) = [0.1874]
bas 220, expnt(s) = [0.0801]
bas 221, expnt(s) = [0.1829]
bas 222, expnt(s) = [5.988e+03 8.989e+02 2.059e+02 5.924e+01 1.987e+01 7.406e+00 2.930e+00
 1.189e+00 4.798e-01]
bas 223, expnt(s) = [0.07509]
bas 224, expnt(s) = [0.02832]
bas 225, expnt(s) = [3.266  0.6511 0.1696]
bas 226, expnt(s) = [0.05578]
bas 227, expnt(s) = [0.0205]
bas 228, expnt(s) = [0.1874]
bas 229, expnt(s) = [0.0801]
bas 230, expnt(s) = [0.1829]
bas 231, expnt(s) = [5.988e+03 8.989e+02 2.059e+02 5.924e+01 1.987e+01 7.406e+00 2.930e+00
 1.189e+00 4.798e-01]
bas 232, expnt(s) = [0.07509]
bas 233, expnt(s) = [0.02832]
bas 234, expnt(s) = [3.266  0.6511 0.1696]
bas 235, expnt(s) = [0.05578]
bas 236, expnt(s) = [0.0205]
bas 237, expnt(s) = [0.1874]
bas 238, expnt(s) = [0.0801]
bas 239, expnt(s) = [0.1829]
bas 240, expnt(s) = [5.988e+03 8.989e+02 2.059e+02 5.924e+01 1.987e+01 7.406e+00 2.930e+00
 1.189e+00 4.798e-01]
bas 241, expnt(s) = [0.07509]
bas 242, expnt(s) = [0.02832]
bas 243, expnt(s) = [3.266  0.6511 0.1696]
bas 244, expnt(s) = [0.05578]
bas 245, expnt(s) = [0.0205]
bas 246, expnt(s) = [0.1874]
bas 247, expnt(s) = [0.0801]
bas 248, expnt(s) = [0.1829]
bas 249, expnt(s) = [5.988e+03 8.989e+02 2.059e+02 5.924e+01 1.987e+01 7.406e+00 2.930e+00
 1.189e+00 4.798e-01]
bas 250, expnt(s) = [0.07509]
bas 251, expnt(s) = [0.02832]
bas 252, expnt(s) = [3.266  0.6511 0.1696]
bas 253, expnt(s) = [0.05578]
bas 254, expnt(s) = [0.0205]
bas 255, expnt(s) = [0.1874]
bas 256, expnt(s) = [0.0801]
bas 257, expnt(s) = [0.1829]
bas 258, expnt(s) = [5.988e+03 8.989e+02 2.059e+02 5.924e+01 1.987e+01 7.406e+00 2.930e+00
 1.189e+00 4.798e-01]
bas 259, expnt(s) = [0.07509]
bas 260, expnt(s) = [0.02832]
bas 261, expnt(s) = [3.266  0.6511 0.1696]
bas 262, expnt(s) = [0.05578]
bas 263, expnt(s) = [0.0205]
bas 264, expnt(s) = [0.1874]
bas 265, expnt(s) = [0.0801]
bas 266, expnt(s) = [0.1829]
bas 267, expnt(s) = [5.988e+03 8.989e+02 2.059e+02 5.924e+01 1.987e+01 7.406e+00 2.930e+00
 1.189e+00 4.798e-01]
bas 268, expnt(s) = [0.07509]
bas 269, expnt(s) = [0.02832]
bas 270, expnt(s) = [3.266  0.6511 0.1696]
bas 271, expnt(s) = [0.05578]
bas 272, expnt(s) = [0.0205]
bas 273, expnt(s) = [0.1874]
bas 274, expnt(s) = [0.0801]
bas 275, expnt(s) = [0.1829]
bas 276, expnt(s) = [5.988e+03 8.989e+02 2.059e+02 5.924e+01 1.987e+01 7.406e+00 2.930e+00
 1.189e+00 4.798e-01]
bas 277, expnt(s) = [0.07509]
bas 278, expnt(s) = [0.02832]
bas 279, expnt(s) = [3.266  0.6511 0.1696]
bas 280, expnt(s) = [0.05578]
bas 281, expnt(s) = [0.0205]
bas 282, expnt(s) = [0.1874]
bas 283, expnt(s) = [0.0801]
bas 284, expnt(s) = [0.1829]
bas 285, expnt(s) = [5.988e+03 8.989e+02 2.059e+02 5.924e+01 1.987e+01 7.406e+00 2.930e+00
 1.189e+00 4.798e-01]
bas 286, expnt(s) = [0.07509]
bas 287, expnt(s) = [0.02832]
bas 288, expnt(s) = [3.266  0.6511 0.1696]
bas 289, expnt(s) = [0.05578]
bas 290, expnt(s) = [0.0205]
bas 291, expnt(s) = [0.1874]
bas 292, expnt(s) = [0.0801]
bas 293, expnt(s) = [0.1829]
bas 294, expnt(s) = [5.988e+03 8.989e+02 2.059e+02 5.924e+01 1.987e+01 7.406e+00 2.930e+00
 1.189e+00 4.798e-01]
bas 295, expnt(s) = [0.07509]
bas 296, expnt(s) = [0.02832]
bas 297, expnt(s) = [3.266  0.6511 0.1696]
bas 298, expnt(s) = [0.05578]
bas 299, expnt(s) = [0.0205]
bas 300, expnt(s) = [0.1874]
bas 301, expnt(s) = [0.0801]
bas 302, expnt(s) = [0.1829]
bas 303, expnt(s) = [5.988e+03 8.989e+02 2.059e+02 5.924e+01 1.987e+01 7.406e+00 2.930e+00
 1.189e+00 4.798e-01]
bas 304, expnt(s) = [0.07509]
bas 305, expnt(s) = [0.02832]
bas 306, expnt(s) = [3.266  0.6511 0.1696]
bas 307, expnt(s) = [0.05578]
bas 308, expnt(s) = [0.0205]
bas 309, expnt(s) = [0.1874]
bas 310, expnt(s) = [0.0801]
bas 311, expnt(s) = [0.1829]
CPU time:         0.66
arg.atm = [[  6  20   1  23   0   0]
 [  8  24   1  27   0   0]
 [  6  28   1  31   0   0]
 [  8  32   1  35   0   0]
 [  6  36   1  39   0   0]
 [  8  40   1  43   0   0]
 [  1  44   1  47   0   0]
 [  1  48   1  51   0   0]
 [  1  52   1  55   0   0]
 [  1  56   1  59   0   0]
 [  3  60   1  63   0   0]
 [  3  64   1  67   0   0]
 [  3  68   1  71   0   0]
 [  3  72   1  75   0   0]
 [  3  76   1  79   0   0]
 [  3  80   1  83   0   0]
 [  3  84   1  87   0   0]
 [  3  88   1  91   0   0]
 [  3  92   1  95   0   0]
 [  3  96   1  99   0   0]
 [  3 100   1 103   0   0]
 [  3 104   1 107   0   0]
 [  3 108   1 111   0   0]
 [  3 112   1 115   0   0]
 [  3 116   1 119   0   0]
 [  3 120   1 123   0   0]
 [  3 124   1 127   0   0]
 [  3 128   1 131   0   0]
 [  3 132   1 135   0   0]
 [  3 136   1 139   0   0]
 [  3 140   1 143   0   0]
 [  3 144   1 147   0   0]
 [  3 148   1 151   0   0]
 [  3 152   1 155   0   0]
 [  3 156   1 159   0   0]
 [  3 160   1 163   0   0]]
arg.bas = [[  0   0   8 ... 180 188   0]
 [  0   0   1 ... 204 205   0]
 [  0   0   1 ... 206 207   0]
 ...
 [ 35   2   1 ... 265 266   0]
 [ 35   2   1 ... 267 268   0]
 [ 35   3   1 ... 269 270   0]]
arg.env = [ 0.00000000e+00  0.00000000e+00  0.00000000e+00  0.00000000e+00
  0.00000000e+00  0.00000000e+00  0.00000000e+00  0.00000000e+00
  0.00000000e+00  0.00000000e+00  0.00000000e+00  0.00000000e+00
  0.00000000e+00  0.00000000e+00  0.00000000e+00  0.00000000e+00
  0.00000000e+00  0.00000000e+00  0.00000000e+00  0.00000000e+00
  9.24019383e+00  8.69207877e+00  1.93853964e+01  0.00000000e+00
  9.20328748e+00  8.02338028e+00  1.69179054e+01  0.00000000e+00
  1.00360331e+01  9.81468947e+00  1.55586821e+01  0.00000000e+00
  1.08957451e+01  1.15484943e+01  1.69739736e+01  0.00000000e+00
  1.09115621e+01  1.07758609e+01  1.94118904e+01  0.00000000e+00
  1.00150193e+01  9.85709492e+00  1.34415463e+01  0.00000000e+00
  9.84993286e+00  7.17778453e+00  2.04358385e+01  0.00000000e+00
  7.47029524e+00  9.20530949e+00  1.99330201e+01  0.00000000e+00
  1.03268241e+01  1.22452552e+01  2.05375057e+01  0.00000000e+00
  1.26928935e+01  1.02404070e+01  1.98977389e+01  0.00000000e+00
  9.94742383e+00  9.94742383e+00  9.94742383e+00  0.00000000e+00
  9.94742383e+00  3.31580794e+00  9.94742383e+00  0.00000000e+00
  1.65790397e+01  9.94742383e+00  9.94742383e+00  0.00000000e+00
  3.31580794e+00  9.94742383e+00  9.94742383e+00  0.00000000e+00
  9.94742383e+00  1.65790397e+01  9.94742383e+00  0.00000000e+00
  1.32632318e+01  6.63161589e+00  6.63161589e+00  0.00000000e+00
  6.63161589e+00  6.63161589e+00  6.63161589e+00  0.00000000e+00
  1.32632318e+01  1.32632318e+01  6.63161589e+00  0.00000000e+00
  6.63161589e+00  1.32632318e+01  6.63161589e+00  0.00000000e+00
  1.65790397e+01  3.31580794e+00  9.94742383e+00  0.00000000e+00
  3.31580794e+00  3.31580794e+00  9.94742383e+00  0.00000000e+00
  1.65790397e+01  1.65790397e+01  9.94742383e+00  0.00000000e+00
  3.31580794e+00  1.65790397e+01  9.94742383e+00  0.00000000e+00
  9.94742383e+00  9.94742383e+00  3.31580794e+00  0.00000000e+00
  9.94742383e+00  3.31580794e+00  3.31580794e+00  0.00000000e+00
  1.65790397e+01  9.94742383e+00  3.31580794e+00  0.00000000e+00
  3.31580794e+00  9.94742383e+00  3.31580794e+00  0.00000000e+00
  9.94742383e+00  1.65790397e+01  3.31580794e+00  0.00000000e+00
  1.32632318e+01  0.00000000e+00  6.63161589e+00  0.00000000e+00
  6.63161589e+00  0.00000000e+00  6.63161589e+00  0.00000000e+00
  0.00000000e+00  6.63161589e+00  6.63161589e+00  0.00000000e+00
  0.00000000e+00  1.32632318e+01  6.63161589e+00  0.00000000e+00
  1.65790397e+01  3.31580794e+00  3.31580794e+00  0.00000000e+00
  3.31580794e+00  3.31580794e+00  3.31580794e+00  0.00000000e+00
  1.65790397e+01  1.65790397e+01  3.31580794e+00  0.00000000e+00
  3.31580794e+00  1.65790397e+01  3.31580794e+00  0.00000000e+00
  3.38700000e+01  5.09500000e+00  1.15900000e+00  9.04334519e-01
  1.63100455e+00  2.40491525e+00  3.25800000e-01  1.08950276e+00
  1.02700000e-01  4.58345379e-01  1.40700000e+00  4.47045795e+00
  3.88000000e-01  8.93354953e-01  1.05700000e+00  2.87515071e+00
  8.23600000e+03  1.23500000e+03  2.80800000e+02  7.92700000e+01
  2.55900000e+01  8.99700000e+00  3.31900000e+00  3.64300000e-01
  1.18480296e+00  2.20874210e+00  3.73316324e+00  5.61216719e+00
  6.89519583e+00  5.82409515e+00  2.19663441e+00 -1.08712663e-02
 -4.28969670e-01 -8.03166571e-01 -1.36745981e+00 -2.11525239e+00
 -2.78571299e+00 -2.89453423e+00 -1.83934657e+00  1.23268730e+00
  9.05900000e-01  2.34598494e+00  1.28500000e-01  5.42241022e-01
  1.87100000e+01  4.13300000e+00  1.20000000e+00  4.47572721e+00
  4.19627876e+00  2.98800046e+00  3.82700000e-01  8.78127282e-01
  1.20900000e-01  2.07977938e-01  1.09700000e+00  3.06825171e+00
  3.18000000e-01  3.51379844e-01  7.61000000e-01  1.06690522e+00
  5.98800000e+03  8.98900000e+02  2.05900000e+02  5.92400000e+01
  1.98700000e+01  7.40600000e+00  2.93000000e+00  1.18900000e+00
  4.79800000e-01  2.29069316e-01  4.25756548e-01  7.25056076e-01
  1.13074246e+00  1.57971158e+00  1.88304523e+00  1.78512072e+00
  1.13373211e+00  2.78411257e-01 -1.33552750e-01 -2.46934407e-01
 -4.16416863e-01 -6.63522613e-01 -9.24900580e-01 -1.17847379e+00
 -1.17034612e+00 -1.05567981e+00 -6.04251387e-01  7.50900000e-02
  3.62411193e-01  2.83200000e-02  1.74415453e-01  3.26600000e+00
  6.51100000e-01  1.69600000e-01  4.55280795e-01  3.34078737e-01
  2.74333054e-01  5.57800000e-02  7.90828897e-02  2.05000000e-02
  2.26295917e-02  1.87400000e-01  1.39275961e-01  8.01000000e-02
  3.14692425e-02  1.82900000e-01  4.31510332e-02  1.53300000e+04
  2.29900000e+03  5.22400000e+02  1.47300000e+02  4.75500000e+01
  1.67600000e+01  6.20700000e+00  6.88200000e-01  1.81067529e+00
  3.37486577e+00  5.72265412e+00  8.66150357e+00  1.08070276e+01
  9.28179538e+00  3.56346173e+00 -1.59395830e-02 -6.86527364e-01
 -1.28759909e+00 -2.19507417e+00 -3.43047366e+00 -4.58719692e+00
 -4.89805685e+00 -2.99457591e+00  1.97563931e+00  1.75200000e+00
  3.84738459e+00  2.38400000e-01  8.61975084e-01  3.44600000e+01
  7.74900000e+00  2.28000000e+00  1.00262994e+01  9.72213774e+00
  6.55849668e+00  7.15600000e-01  1.92009319e+00  2.14000000e-01
  4.24621137e-01  2.31400000e+00  1.13283134e+01  6.45000000e-01
  1.21132000e+00  1.42800000e+00  4.39692268e+00]
ecpbas  = []


******** <class 'pyscf.scf.hf.RHF'> ********
method = RHF
initial guess = minao
damping factor = 0
level_shift factor = 0
DIIS = <class 'pyscf.scf.diis.CDIIS'>
diis_start_cycle = 1
diis_space = 8
SCF conv_tol = 1e-09
SCF conv_tol_grad = None
SCF max_cycles = 50
direct_scf = True
direct_scf_tol = 1e-13
chkfile to save SCF result = /burg/ccce/users/eav2136/projects/batteries/01_mp2/tmp/tmpnx9qcwu1
max_memory 700000 MB (current use 95 MB)
Set gradient conv threshold to 3.16228e-05
Nelec from initial guess = 123.99830993821733
    CPU time for vj and vk   3173.17 sec, wall time     99.83 sec
E1 = -2427.9737073998845  E_coul = 1030.3216356950993
init E= -538.796177714206
cond(S) = 15442901.816712875
    CPU time for initialize scf   3184.51 sec, wall time    100.42 sec
  HOMO = -0.102669150885328  LUMO = -0.0904039455355074
  mo_energy =
[-2.08435418e+01 -2.07936083e+01 -2.07926150e+01 -1.13785575e+01
 -1.13528349e+01 -1.13477144e+01 -2.52788557e+00 -2.52140395e+00
 -2.52091941e+00 -2.51856209e+00 -2.51379303e+00 -2.50704035e+00
 -2.50498341e+00 -2.50485707e+00 -2.50295384e+00 -2.50273043e+00
 -2.50030740e+00 -2.49990713e+00 -2.49953580e+00 -2.49916649e+00
 -2.49726261e+00 -2.49629376e+00 -2.49535511e+00 -2.49437813e+00
 -2.49380489e+00 -2.49359554e+00 -2.49246630e+00 -2.49244856e+00
 -2.49170991e+00 -2.49170588e+00 -2.48758287e+00 -2.48712978e+00
 -2.16878601e+00 -1.79613429e+00 -1.65779556e+00 -1.33706711e+00
 -1.05209875e+00 -9.01387685e-01 -8.03094499e-01 -7.85504461e-01
 -6.88638927e-01 -6.65194923e-01 -6.21457108e-01 -5.91052916e-01
 -5.69829975e-01 -5.00331404e-01 -4.94296543e-01 -4.38372051e-01
 -4.16406515e-01 -4.05298427e-01 -4.04039863e-01 -3.24610910e-01
 -2.76970583e-01 -2.37499632e-01 -2.34459778e-01 -2.24554151e-01
 -1.55647656e-01 -1.52773720e-01 -1.51264600e-01 -1.41157986e-01
 -1.04388953e-01 -1.02669151e-01 -9.04039455e-02 -5.98909865e-02
 -5.84514695e-02 -5.31705465e-02 -4.51385823e-02 -4.11249611e-02
 -3.84843979e-02 -2.32119407e-02 -2.20609216e-02 -1.60968970e-02
 -1.25758456e-02 -1.24138845e-02 -9.15080858e-03 -2.13144335e-03
 -1.56920269e-03 -1.34684250e-03  5.71200267e-03  1.76227041e-02
  1.98419911e-02  2.28259434e-02  2.34567579e-02  2.62577058e-02
  2.66993580e-02  3.35865415e-02  3.67152898e-02  3.68869780e-02
  3.82578155e-02  4.00600362e-02  4.33059356e-02  4.48217573e-02
  4.55653581e-02  4.66092800e-02  4.74134732e-02  4.76154898e-02
  5.01714418e-02  5.12794454e-02  5.27386657e-02  5.36512621e-02
  5.56844211e-02  5.65784498e-02  5.75546168e-02  5.97673205e-02
  5.99347662e-02  6.29584576e-02  6.52788077e-02  6.61497725e-02
  6.65616243e-02  6.83357585e-02  6.89339907e-02  7.02608949e-02
  7.29013720e-02  7.40590189e-02  7.61685388e-02  7.70657469e-02
  7.73416403e-02  7.86446977e-02  8.37531408e-02  8.53135694e-02
  8.62982263e-02  8.67651086e-02  8.75010751e-02  8.81360426e-02
  8.85168261e-02  9.05225659e-02  9.22544138e-02  9.31115420e-02
  9.42606769e-02  9.53821581e-02  9.68917098e-02  9.79266532e-02
  9.82424079e-02  9.93569395e-02  1.01056025e-01  1.01789085e-01
  1.02434936e-01  1.05468155e-01  1.06120038e-01  1.06704374e-01
  1.07507972e-01  1.08787972e-01  1.13519401e-01  1.14131476e-01
  1.15637547e-01  1.16322510e-01  1.17514606e-01  1.19128207e-01
  1.20867123e-01  1.21720882e-01  1.21808892e-01  1.24011710e-01
  1.25831198e-01  1.26047085e-01  1.27034875e-01  1.28199013e-01
  1.30305787e-01  1.31035717e-01  1.32080169e-01  1.32876052e-01
  1.33228225e-01  1.34067329e-01  1.35760096e-01  1.38956977e-01
  1.39910008e-01  1.42356407e-01  1.42958941e-01  1.43784109e-01
  1.46886441e-01  1.48201678e-01  1.48400489e-01  1.51681101e-01
  1.53784489e-01  1.55945755e-01  1.57227023e-01  1.59013702e-01
  1.59316906e-01  1.63756338e-01  1.64515765e-01  1.64919363e-01
  1.67749853e-01  1.68319142e-01  1.69911272e-01  1.70879390e-01
  1.71272145e-01  1.73042155e-01  1.75101969e-01  1.75428997e-01
  1.79611219e-01  1.80839659e-01  1.81961686e-01  1.82462022e-01
  1.84954182e-01  1.85354830e-01  1.87822631e-01  1.88365427e-01
  1.93392595e-01  1.93527598e-01  1.94437444e-01  1.94809760e-01
  1.95351088e-01  1.96713457e-01  1.96745160e-01  2.00090742e-01
  2.00374202e-01  2.02891254e-01  2.03680573e-01  2.05208567e-01
  2.05328878e-01  2.05697508e-01  2.07303031e-01  2.08156031e-01
  2.09451201e-01  2.11756539e-01  2.13079271e-01  2.14200521e-01
  2.16429059e-01  2.18467126e-01  2.18699389e-01  2.20043829e-01
  2.23926030e-01  2.25794127e-01  2.27174100e-01  2.27994496e-01
  2.29519573e-01  2.31621631e-01  2.33865649e-01  2.36049133e-01
  2.40167887e-01  2.40797561e-01  2.42814376e-01  2.46026368e-01
  2.48509535e-01  2.49879630e-01  2.50542306e-01  2.50917029e-01
  2.53813452e-01  2.55183844e-01  2.56558298e-01  2.60386008e-01
  2.63992441e-01  2.64825300e-01  2.66805904e-01  2.67951206e-01
  2.71622412e-01  2.75068338e-01  2.76578858e-01  2.80105457e-01
  2.81459743e-01  2.83359226e-01  2.85104699e-01  2.85896735e-01
  2.86634568e-01  2.87149298e-01  2.91977175e-01  2.93288106e-01
  2.95449237e-01  2.98718583e-01  2.99582529e-01  3.00300749e-01
  3.02673742e-01  3.04660807e-01  3.07534382e-01  3.09715922e-01
  3.11080181e-01  3.14153429e-01  3.15359156e-01  3.17034497e-01
  3.20302776e-01  3.22585881e-01  3.24418448e-01  3.25030911e-01
  3.26678426e-01  3.31014252e-01  3.32627172e-01  3.35143943e-01
  3.38626429e-01  3.39214139e-01  3.41095205e-01  3.44793561e-01
  3.47716198e-01  3.48651412e-01  3.49514782e-01  3.51320742e-01
  3.53573025e-01  3.54802190e-01  3.54974696e-01  3.57381549e-01
  3.57764036e-01  3.61325603e-01  3.62839859e-01  3.64068191e-01
  3.65823344e-01  3.66257776e-01  3.69696845e-01  3.71790317e-01
  3.77607638e-01  3.79788749e-01  3.80581764e-01  3.83715762e-01
  3.85350307e-01  3.88023871e-01  3.91004400e-01  3.92252120e-01
  3.93005992e-01  3.93931632e-01  3.97246286e-01  3.99569694e-01
  4.00435172e-01  4.03314606e-01  4.05354742e-01  4.06605443e-01
  4.07156572e-01  4.07390466e-01  4.08104802e-01  4.11118388e-01
  4.12967612e-01  4.14727962e-01  4.14964235e-01  4.16650013e-01
  4.18811699e-01  4.19906602e-01  4.21518962e-01  4.22882666e-01
  4.23574315e-01  4.24944466e-01  4.27896534e-01  4.29216578e-01
  4.30396489e-01  4.32256837e-01  4.34589182e-01  4.35879303e-01
  4.37475966e-01  4.40058339e-01  4.41552835e-01  4.43501535e-01
  4.45529298e-01  4.46035079e-01  4.47285156e-01  4.49165699e-01
  4.50021245e-01  4.51313272e-01  4.52271813e-01  4.53671206e-01
  4.54874824e-01  4.56844829e-01  4.59238469e-01  4.61597921e-01
  4.62085413e-01  4.62492766e-01  4.64445380e-01  4.67679800e-01
  4.70071901e-01  4.70435650e-01  4.74869378e-01  4.75561773e-01
  4.78095605e-01  4.78350501e-01  4.80089636e-01  4.82119380e-01
  4.84341064e-01  4.84509043e-01  4.86630783e-01  4.88106725e-01
  4.88579313e-01  4.90456300e-01  4.93484615e-01  4.94461404e-01
  4.95925060e-01  4.96533407e-01  4.97377191e-01  5.01329949e-01
  5.02906365e-01  5.03472207e-01  5.04150438e-01  5.05999121e-01
  5.07915371e-01  5.08292734e-01  5.10313277e-01  5.12646790e-01
  5.15009394e-01  5.15556754e-01  5.16620649e-01  5.18480898e-01
  5.22201099e-01  5.24783126e-01  5.28367658e-01  5.29442669e-01
  5.31853482e-01  5.32247131e-01  5.34387630e-01  5.38595414e-01
  5.39198722e-01  5.41239065e-01  5.43503150e-01  5.47952234e-01
  5.52273680e-01  5.54799884e-01  5.58776030e-01  5.60676122e-01
  5.62181526e-01  5.63940367e-01  5.69687329e-01  5.70898482e-01
  5.72420700e-01  5.73334311e-01  5.77220567e-01  5.77567131e-01
  5.79526925e-01  5.81376202e-01  5.82247420e-01  5.84048929e-01
  5.84925524e-01  5.87233892e-01  5.93507589e-01  5.95874733e-01
  5.97860306e-01  5.99616386e-01  6.00334213e-01  6.02778154e-01
  6.06003067e-01  6.08615502e-01  6.09481891e-01  6.12680597e-01
  6.14419066e-01  6.19487658e-01  6.19851367e-01  6.22668500e-01
  6.23974227e-01  6.24756217e-01  6.25232784e-01  6.28079295e-01
  6.28639538e-01  6.33185531e-01  6.33637007e-01  6.36818586e-01
  6.40243630e-01  6.41286306e-01  6.43243633e-01  6.45250286e-01
  6.45556773e-01  6.46217699e-01  6.48302613e-01  6.51186316e-01
  6.54097006e-01  6.56361711e-01  6.57450162e-01  6.58151111e-01
  6.62520481e-01  6.63809848e-01  6.65497498e-01  6.67419817e-01
  6.68914382e-01  6.71770820e-01  6.72963290e-01  6.74765157e-01
  6.76920478e-01  6.78504712e-01  6.79540933e-01  6.83513691e-01
  6.87189921e-01  6.87600326e-01  6.90034532e-01  6.92576104e-01
  6.93417416e-01  6.95184513e-01  6.97809760e-01  6.99212921e-01
  7.01408669e-01  7.03801977e-01  7.04726405e-01  7.04932227e-01
  7.06808896e-01  7.10284995e-01  7.11932160e-01  7.12736511e-01
  7.16230012e-01  7.20227107e-01  7.20531746e-01  7.24498433e-01
  7.27033882e-01  7.30391407e-01  7.31831719e-01  7.35759088e-01
  7.39147844e-01  7.40108674e-01  7.43223149e-01  7.45541844e-01
  7.47977713e-01  7.49320143e-01  7.51303763e-01  7.52878559e-01
  7.55862664e-01  7.57347725e-01  7.58551588e-01  7.61321152e-01
  7.62117138e-01  7.64924428e-01  7.69260995e-01  7.70500451e-01
  7.72739026e-01  7.74113229e-01  7.77265250e-01  7.83398309e-01
  7.85901932e-01  7.87506159e-01  7.88520700e-01  7.90663896e-01
  7.92706821e-01  7.95507604e-01  7.97363356e-01  7.99441995e-01
  8.01421247e-01  8.04671130e-01  8.05663046e-01  8.08296694e-01
  8.09815868e-01  8.10965967e-01  8.13713278e-01  8.14367000e-01
  8.16012592e-01  8.17176379e-01  8.21082470e-01  8.21858910e-01
  8.25381234e-01  8.28860982e-01  8.29492603e-01  8.31162509e-01
  8.34604188e-01  8.36044963e-01  8.37812310e-01  8.39575942e-01
  8.41500971e-01  8.41826148e-01  8.44247695e-01  8.45155157e-01
  8.47160554e-01  8.48649990e-01  8.49205399e-01  8.52644180e-01
  8.55724803e-01  8.56660653e-01  8.57417484e-01  8.58840761e-01
  8.59494453e-01  8.59588641e-01  8.60511412e-01  8.63555744e-01
  8.64199762e-01  8.66660321e-01  8.71353502e-01  8.72555886e-01
  8.75880904e-01  8.78657958e-01  8.81481292e-01  8.82315223e-01
  8.85669547e-01  8.86691986e-01  8.88409911e-01  8.90443698e-01
  8.92825714e-01  8.93411681e-01  8.94950393e-01  8.97503244e-01
  8.98986637e-01  9.00754241e-01  9.02713780e-01  9.03581318e-01
  9.06526154e-01  9.07436787e-01  9.08579026e-01  9.10583373e-01
  9.14343730e-01  9.15525383e-01  9.19380475e-01  9.22729948e-01
  9.23287376e-01  9.24949293e-01  9.26680381e-01  9.30705017e-01
  9.34461359e-01  9.36086189e-01  9.37396809e-01  9.39895983e-01
  9.43154231e-01  9.43926455e-01  9.45390932e-01  9.46310354e-01
  9.49787072e-01  9.51748296e-01  9.53783415e-01  9.54280237e-01
  9.56998258e-01  9.59695736e-01  9.60556715e-01  9.63474634e-01
  9.68234482e-01  9.69479582e-01  9.70961027e-01  9.71389718e-01
  9.73609800e-01  9.76917735e-01  9.78955632e-01  9.80901898e-01
  9.84327685e-01  9.86711667e-01  9.87722434e-01  9.89133334e-01
  9.91642296e-01  9.92655948e-01  9.93919441e-01  9.96588479e-01
  9.99634182e-01  1.00282778e+00  1.00476553e+00  1.00540057e+00
  1.00769252e+00  1.00805256e+00  1.01076937e+00  1.01120091e+00
  1.01272429e+00  1.01454555e+00  1.01507812e+00  1.01579693e+00
  1.01755614e+00  1.02052678e+00  1.02255509e+00  1.02393361e+00
  1.02498527e+00  1.02609602e+00  1.02793452e+00  1.02925969e+00
  1.03239180e+00  1.03536853e+00  1.03709369e+00  1.03878421e+00
  1.03951304e+00  1.04162243e+00  1.04271736e+00  1.04405691e+00
  1.04910402e+00  1.04951576e+00  1.05014249e+00  1.05169585e+00
  1.05420727e+00  1.05663553e+00  1.05918829e+00  1.06093463e+00
  1.06251644e+00  1.06565356e+00  1.06768319e+00  1.06908129e+00
  1.07064613e+00  1.07285105e+00  1.07295229e+00  1.07656972e+00
  1.08012163e+00  1.08450816e+00  1.08494563e+00  1.08697863e+00
  1.09290381e+00  1.09410998e+00  1.09554668e+00  1.10058681e+00
  1.10356253e+00  1.10394356e+00  1.10666322e+00  1.10825311e+00
  1.11093737e+00  1.11251778e+00  1.11441745e+00  1.11619074e+00
  1.11800940e+00  1.12032535e+00  1.12253591e+00  1.12696420e+00
  1.12791148e+00  1.12985434e+00  1.13336454e+00  1.13390621e+00
  1.13600103e+00  1.13867985e+00  1.14004477e+00  1.14053258e+00
  1.14295255e+00  1.14462365e+00  1.14636618e+00  1.14847186e+00
  1.15177130e+00  1.15515757e+00  1.15908378e+00  1.16195002e+00
  1.16303236e+00  1.16500504e+00  1.17234789e+00  1.17601346e+00
  1.17792567e+00  1.18023847e+00  1.18195962e+00  1.18254322e+00
  1.18502651e+00  1.18721453e+00  1.18898867e+00  1.18958834e+00
  1.19064393e+00  1.19342718e+00  1.19452023e+00  1.19698147e+00
  1.19958725e+00  1.20202191e+00  1.20635492e+00  1.20939181e+00
  1.21184091e+00  1.21506072e+00  1.21776916e+00  1.21882140e+00
  1.22159114e+00  1.22367730e+00  1.22587743e+00  1.22874478e+00
  1.23093752e+00  1.23172425e+00  1.23503196e+00  1.23597941e+00
  1.23876385e+00  1.23971492e+00  1.24218034e+00  1.24538953e+00
  1.24713807e+00  1.24921557e+00  1.24975941e+00  1.25291426e+00
  1.25590463e+00  1.25691229e+00  1.25961811e+00  1.26108173e+00
  1.26221469e+00  1.26257383e+00  1.26380072e+00  1.26611923e+00
  1.26685257e+00  1.27146172e+00  1.27220003e+00  1.27610989e+00
  1.27822823e+00  1.28314193e+00  1.28610696e+00  1.28959242e+00
  1.29211602e+00  1.29441143e+00  1.29835923e+00  1.29966085e+00
  1.30572569e+00  1.30613157e+00  1.31142824e+00  1.31376401e+00
  1.31472007e+00  1.31772561e+00  1.31837941e+00  1.32420452e+00
  1.33174727e+00  1.33445459e+00  1.33523051e+00  1.33991963e+00
  1.34307226e+00  1.34681566e+00  1.34892974e+00  1.35163779e+00
  1.35363022e+00  1.35417711e+00  1.36093657e+00  1.36213699e+00
  1.36604332e+00  1.36798203e+00  1.37103764e+00  1.37675404e+00
  1.37863508e+00  1.38063250e+00  1.38367136e+00  1.38734828e+00
  1.39213381e+00  1.39498588e+00  1.39974112e+00  1.40220213e+00
  1.40364627e+00  1.40909005e+00  1.41072333e+00  1.41206912e+00
  1.41668740e+00  1.41747526e+00  1.42319174e+00  1.42767525e+00
  1.42968386e+00  1.43085180e+00  1.44107010e+00  1.44437914e+00
  1.44598333e+00  1.44735351e+00  1.45761801e+00  1.45997332e+00
  1.46213319e+00  1.46553559e+00  1.46992252e+00  1.47264698e+00
  1.47812829e+00  1.48210035e+00  1.48558443e+00  1.48926787e+00
  1.49205914e+00  1.49609374e+00  1.50136285e+00  1.51561987e+00
  1.51696227e+00  1.51873160e+00  1.52457703e+00  1.52666616e+00
  1.53710694e+00  1.53889965e+00  1.54068415e+00  1.54407409e+00
  1.54751099e+00  1.56214855e+00  1.57066633e+00  1.58214949e+00
  1.60854105e+00  1.60949847e+00  1.61343388e+00  1.62893228e+00
  1.63167485e+00  1.64096245e+00  1.64381742e+00  1.65446808e+00
  1.68027042e+00  1.68736519e+00  1.69057002e+00  1.70940259e+00
  1.76219157e+00  1.82460654e+00  1.84547666e+00  1.89295137e+00
  1.90025015e+00  1.93607851e+00  1.96391191e+00  2.01227272e+00
  2.06746372e+00  2.06904619e+00  2.15490152e+00  2.23067618e+00
  2.28043319e+00  2.33435684e+00  2.39913374e+00  2.41786535e+00
  2.46641493e+00  2.48718264e+00  2.50918491e+00  2.57188828e+00
  2.63091872e+00  2.69773725e+00  2.71731501e+00  2.71839705e+00
  2.76432802e+00  2.82592372e+00  2.85379119e+00  2.86163486e+00
  2.88004108e+00  2.89362864e+00  2.97491093e+00  3.01598585e+00
  3.07368711e+00  3.10084553e+00  3.13412907e+00  3.13869369e+00
  3.16573736e+00  3.18583792e+00  3.20522791e+00  3.24203044e+00
  3.28227504e+00  3.28320243e+00  3.29906676e+00  3.30871153e+00
  3.33273200e+00  3.35478902e+00  3.35674844e+00  3.36323313e+00
  3.38991864e+00  3.40712703e+00  3.41251127e+00  3.41763595e+00
  3.43613815e+00  3.44668063e+00  3.45646981e+00  3.46771252e+00
  3.47424391e+00  3.48441819e+00  3.48773927e+00  3.51502855e+00
  3.51896550e+00  3.52747741e+00  3.53520467e+00  3.54249724e+00
  3.55150667e+00  3.56880587e+00  3.57779515e+00  3.60810681e+00
  3.62018995e+00  3.64226280e+00  3.67914960e+00  3.68022680e+00
  3.68752476e+00  3.69152852e+00  3.70070197e+00  3.70373390e+00
  3.75804126e+00  3.77229386e+00  3.77596415e+00  3.80334100e+00
  3.85617977e+00  3.87267353e+00  3.90857106e+00  3.93297513e+00
  3.95766502e+00  3.97029119e+00  3.99347560e+00  4.00236253e+00
  4.03652168e+00  4.04257311e+00  4.06799556e+00  4.07257943e+00
  4.08431381e+00  4.09735296e+00  4.10773851e+00  4.15971662e+00
  4.25271300e+00  4.28970990e+00  4.29789083e+00  4.30024979e+00
  4.39305411e+00  4.39498318e+00  4.43178402e+00  4.44219124e+00
  4.50270924e+00  4.51079646e+00  4.53337899e+00  4.54113724e+00
  4.61262621e+00  4.64975658e+00  4.66666231e+00  4.68297894e+00
  4.71148362e+00  4.78789705e+00  4.82539102e+00  4.94173929e+00
  5.00764049e+00  5.03612729e+00  5.07058707e+00  5.12709788e+00
  5.13396460e+00  5.29705807e+00  5.31347791e+00  5.37851344e+00
  5.43111353e+00  5.43437223e+00  5.44367694e+00  5.48003629e+00
  5.51643964e+00  5.51924652e+00  5.58148873e+00  5.65547684e+00
  5.72678265e+00  5.74337720e+00  5.82515715e+00  5.83958699e+00
  5.95168995e+00  5.95618513e+00  6.02944841e+00  6.05837900e+00
  6.10205801e+00  6.11683172e+00  6.15233005e+00  6.16873256e+00
  6.25751285e+00  6.35015545e+00  6.41928349e+00  6.42789188e+00
  6.43406029e+00  6.54191813e+00  6.60446808e+00  6.64425434e+00
  6.69512441e+00  6.78203800e+00  6.83042881e+00  6.87688544e+00
  6.88002020e+00  6.95594044e+00  7.02021287e+00  7.12210185e+00
  7.15380235e+00  7.22820912e+00  7.26317357e+00  7.28658242e+00
  7.31292875e+00  7.36866557e+00  7.43119891e+00  7.45371405e+00
  7.63893654e+00  7.69398860e+00  7.82702011e+00  7.90916617e+00
  8.03209448e+00  8.37716060e+00  1.12696366e+01  1.31171518e+01
  1.33293395e+01  1.41071019e+01  1.59272906e+01  1.75561270e+01]
    CPU time for vj and vk   3329.53 sec, wall time    104.34 sec
E1 = -2438.1260156790354  E_coul = 1045.3484266118533
cycle= 1 E= -533.921695076603  delta_E= 4.87  |g|= 1.02  |ddm|=    9
    CPU time for cycle= 1   3331.92 sec, wall time    104.61 sec
diis-norm(errvec)=4.60719
diis-c [-21.2262311   1.       ]
  HOMO = -0.0492364492463795  LUMO = -0.00588480856809038
  mo_energy =
[-2.06038149e+01 -2.05982282e+01 -2.02413556e+01 -1.16708105e+01
 -1.14491073e+01 -1.14461749e+01 -2.45866525e+00 -2.45745305e+00
 -2.44472701e+00 -2.44471763e+00 -2.44175992e+00 -2.44127194e+00
 -2.40440055e+00 -2.40395985e+00 -2.40330302e+00 -2.40269123e+00
 -2.39081787e+00 -2.39080498e+00 -2.38853877e+00 -2.38609861e+00
 -2.37896268e+00 -2.37796588e+00 -2.33308742e+00 -2.33209801e+00
 -2.33116437e+00 -2.32815404e+00 -2.27245451e+00 -2.26356576e+00
 -2.23889488e+00 -2.23807796e+00 -2.21118232e+00 -2.19819208e+00
 -1.68823818e+00 -1.50482287e+00 -1.41927200e+00 -1.19925237e+00
 -1.03374905e+00 -9.29909579e-01 -8.74229758e-01 -8.13672056e-01
 -7.82793376e-01 -7.15729057e-01 -7.01159575e-01 -6.32272499e-01
 -6.14204043e-01 -5.82569376e-01 -5.32346065e-01 -4.53902963e-01
 -4.10252420e-01 -2.31840189e-01 -2.17316789e-01 -2.09001716e-01
 -1.81314328e-01 -1.49363892e-01 -1.27534910e-01 -1.12720684e-01
 -1.01484210e-01 -9.69002747e-02 -9.16632750e-02 -8.93826657e-02
 -5.34523573e-02 -4.92364492e-02 -5.88480857e-03  1.32213113e-02
  1.73367325e-02  1.91875705e-02  1.94060555e-02  2.35470757e-02
  2.58416525e-02  2.74969598e-02  3.04231727e-02  3.30222190e-02
  3.37265074e-02  3.68134602e-02  3.94444509e-02  4.16862746e-02
  4.30292347e-02  4.50064126e-02  4.68049436e-02  4.83562771e-02
  5.09209493e-02  5.29360965e-02  5.48442705e-02  5.57355306e-02
  5.92135014e-02  6.15817376e-02  6.21979160e-02  6.45880256e-02
  6.64749755e-02  6.66443516e-02  6.95558977e-02  7.07872232e-02
  7.13975872e-02  7.29021526e-02  7.38483426e-02  7.42841963e-02
  7.66189148e-02  7.73648196e-02  7.77882751e-02  8.23874289e-02
  8.32717701e-02  8.42041750e-02  8.64733406e-02  8.74385945e-02
  8.83069951e-02  8.88919915e-02  8.99313437e-02  9.04217974e-02
  9.39642301e-02  9.41823260e-02  9.54491137e-02  9.62792450e-02
  9.70450829e-02  1.00941265e-01  1.02297412e-01  1.02962924e-01
  1.03646818e-01  1.04565259e-01  1.07073725e-01  1.08040405e-01
  1.08500580e-01  1.10127095e-01  1.10730264e-01  1.12959169e-01
  1.17189608e-01  1.17767414e-01  1.18056366e-01  1.20378550e-01
  1.21600071e-01  1.23441316e-01  1.23892653e-01  1.24390531e-01
  1.25209058e-01  1.27205400e-01  1.28272675e-01  1.32365046e-01
  1.32577241e-01  1.33001181e-01  1.34614454e-01  1.36701692e-01
  1.37229446e-01  1.38922016e-01  1.39091293e-01  1.41529191e-01
  1.44835102e-01  1.45205098e-01  1.46168746e-01  1.47004310e-01
  1.49458313e-01  1.50543745e-01  1.51006795e-01  1.52944947e-01
  1.55312970e-01  1.57615653e-01  1.58705636e-01  1.60541435e-01
  1.62190273e-01  1.64607131e-01  1.65344504e-01  1.67374407e-01
  1.71412912e-01  1.75433966e-01  1.77127530e-01  1.78247767e-01
  1.79272190e-01  1.81710874e-01  1.83161511e-01  1.85857685e-01
  1.86912389e-01  1.89124084e-01  1.92024934e-01  1.92680209e-01
  1.93977790e-01  1.96339655e-01  1.96953119e-01  1.98566429e-01
  1.99913876e-01  2.00352103e-01  2.01958002e-01  2.04837915e-01
  2.05079255e-01  2.07621435e-01  2.09437222e-01  2.10474978e-01
  2.13172575e-01  2.14453543e-01  2.18728546e-01  2.19624264e-01
  2.20398011e-01  2.21374045e-01  2.23354321e-01  2.27333900e-01
  2.29552970e-01  2.30191457e-01  2.31462022e-01  2.32526046e-01
  2.33952738e-01  2.35774161e-01  2.37563600e-01  2.37791641e-01
  2.38727763e-01  2.39270498e-01  2.40699494e-01  2.44618351e-01
  2.45940425e-01  2.48812738e-01  2.49970823e-01  2.51657822e-01
  2.55649249e-01  2.58052005e-01  2.59394229e-01  2.60154889e-01
  2.60714781e-01  2.62025837e-01  2.65448339e-01  2.67588191e-01
  2.70179421e-01  2.71806545e-01  2.74709264e-01  2.78628227e-01
  2.82070386e-01  2.83014827e-01  2.83520563e-01  2.85823395e-01
  2.86097151e-01  2.87789394e-01  2.89059254e-01  2.92008917e-01
  2.92118872e-01  2.99337722e-01  3.01026113e-01  3.04313333e-01
  3.06986002e-01  3.09365109e-01  3.10483209e-01  3.13653803e-01
  3.17292997e-01  3.18318475e-01  3.20129564e-01  3.20965495e-01
  3.23785813e-01  3.26309868e-01  3.27019095e-01  3.29048001e-01
  3.29881046e-01  3.32300766e-01  3.38051308e-01  3.41633545e-01
  3.42870216e-01  3.45905491e-01  3.48805251e-01  3.49037240e-01
  3.52662790e-01  3.54124997e-01  3.59271106e-01  3.64028209e-01
  3.64556114e-01  3.66079933e-01  3.67119170e-01  3.67762027e-01
  3.70460469e-01  3.71736272e-01  3.73439241e-01  3.73838843e-01
  3.80417712e-01  3.81743686e-01  3.85283888e-01  3.88167105e-01
  3.89339302e-01  3.90185243e-01  3.93864354e-01  3.96421018e-01
  3.98496072e-01  4.00541035e-01  4.01784329e-01  4.03631598e-01
  4.06656236e-01  4.11090443e-01  4.11233233e-01  4.12899571e-01
  4.13208820e-01  4.15189421e-01  4.17165150e-01  4.17327216e-01
  4.19156346e-01  4.22465146e-01  4.24581453e-01  4.25259104e-01
  4.27197653e-01  4.27871637e-01  4.30561698e-01  4.32131598e-01
  4.33139601e-01  4.33492468e-01  4.37580887e-01  4.39624078e-01
  4.41841316e-01  4.42961805e-01  4.45182608e-01  4.47729944e-01
  4.48707072e-01  4.52604563e-01  4.56257368e-01  4.57124929e-01
  4.58109760e-01  4.62000287e-01  4.62571026e-01  4.65309272e-01
  4.67093477e-01  4.68011452e-01  4.70493239e-01  4.70748882e-01
  4.74488549e-01  4.76384121e-01  4.77043521e-01  4.78148812e-01
  4.79931940e-01  4.81246372e-01  4.82758036e-01  4.84945234e-01
  4.85959881e-01  4.86807148e-01  4.88028674e-01  4.89423067e-01
  4.90168957e-01  4.90878199e-01  4.92725936e-01  4.93689831e-01
  4.94226702e-01  4.97600937e-01  4.98732832e-01  5.00651861e-01
  5.03275249e-01  5.03951401e-01  5.04505393e-01  5.08138394e-01
  5.08638806e-01  5.09314289e-01  5.10641421e-01  5.12796064e-01
  5.13132085e-01  5.16627990e-01  5.21905913e-01  5.23535484e-01
  5.25889792e-01  5.27396468e-01  5.28801157e-01  5.30090596e-01
  5.32356883e-01  5.34682737e-01  5.36126910e-01  5.36903229e-01
  5.38676125e-01  5.40979323e-01  5.42570907e-01  5.46235212e-01
  5.47252131e-01  5.49999732e-01  5.51592668e-01  5.55508432e-01
  5.58785753e-01  5.59476670e-01  5.60298128e-01  5.63052170e-01
  5.66202845e-01  5.68200658e-01  5.70015326e-01  5.71417323e-01
  5.72882013e-01  5.74079763e-01  5.77620054e-01  5.78785845e-01
  5.79369516e-01  5.80611933e-01  5.82359238e-01  5.83645172e-01
  5.84426647e-01  5.85846679e-01  5.90158419e-01  5.93399247e-01
  5.94581753e-01  6.00020088e-01  6.01450571e-01  6.03172357e-01
  6.03752031e-01  6.06938389e-01  6.11012187e-01  6.12608422e-01
  6.14788646e-01  6.15451069e-01  6.16985285e-01  6.18486203e-01
  6.19926527e-01  6.20895456e-01  6.22774386e-01  6.25090184e-01
  6.29533251e-01  6.30206563e-01  6.31966436e-01  6.34128427e-01
  6.35365146e-01  6.35999154e-01  6.36697217e-01  6.41474828e-01
  6.43188767e-01  6.44193151e-01  6.46216197e-01  6.48688696e-01
  6.52172612e-01  6.52507847e-01  6.56774318e-01  6.58356778e-01
  6.60868715e-01  6.63469060e-01  6.67162678e-01  6.69930370e-01
  6.70511482e-01  6.72193070e-01  6.74613492e-01  6.78620286e-01
  6.79738149e-01  6.84538813e-01  6.87476837e-01  6.88511316e-01
  6.92061871e-01  6.93105135e-01  6.95509907e-01  6.97103740e-01
  6.99995106e-01  7.00156689e-01  7.01427483e-01  7.06280144e-01
  7.09052070e-01  7.09608385e-01  7.12020804e-01  7.14968735e-01
  7.18275127e-01  7.23100569e-01  7.23754172e-01  7.27466676e-01
  7.30599017e-01  7.33211746e-01  7.33906505e-01  7.37732336e-01
  7.43669623e-01  7.45232434e-01  7.48812456e-01  7.50771903e-01
  7.53223381e-01  7.55893128e-01  7.56538965e-01  7.58772919e-01
  7.60213406e-01  7.64083871e-01  7.67602382e-01  7.68183456e-01
  7.71485870e-01  7.72811338e-01  7.73679019e-01  7.75177650e-01
  7.78923216e-01  7.81178726e-01  7.82148205e-01  7.84175925e-01
  7.87325045e-01  7.89142190e-01  7.92880261e-01  7.96658720e-01
  7.97863994e-01  7.98896418e-01  8.02707532e-01  8.05786651e-01
  8.07152085e-01  8.08179590e-01  8.11977294e-01  8.14194442e-01
  8.17290549e-01  8.19061510e-01  8.20012617e-01  8.21778278e-01
  8.22266426e-01  8.25313333e-01  8.25950816e-01  8.28911601e-01
  8.30286246e-01  8.31127130e-01  8.33658339e-01  8.37696159e-01
  8.39996730e-01  8.41641331e-01  8.43501306e-01  8.46412285e-01
  8.49317205e-01  8.51422534e-01  8.52522303e-01  8.54807662e-01
  8.56599995e-01  8.60274651e-01  8.62258524e-01  8.64364914e-01
  8.67626912e-01  8.68422631e-01  8.69786079e-01  8.70639859e-01
  8.74197690e-01  8.75903356e-01  8.77551947e-01  8.79453429e-01
  8.82223662e-01  8.85431874e-01  8.87094866e-01  8.92321717e-01
  8.94827320e-01  8.97370219e-01  8.99812988e-01  9.01427202e-01
  9.04350528e-01  9.05569458e-01  9.06957677e-01  9.08675673e-01
  9.10595228e-01  9.10982500e-01  9.12977085e-01  9.13968455e-01
  9.16754727e-01  9.17042073e-01  9.19326098e-01  9.21346856e-01
  9.24736374e-01  9.27457541e-01  9.28492341e-01  9.31041531e-01
  9.32269394e-01  9.34771247e-01  9.37446785e-01  9.39577150e-01
  9.40827139e-01  9.42981848e-01  9.46938665e-01  9.49082302e-01
  9.50219506e-01  9.51980183e-01  9.56786052e-01  9.58247807e-01
  9.59823991e-01  9.62014418e-01  9.63141781e-01  9.66343860e-01
  9.67582926e-01  9.69349086e-01  9.72315047e-01  9.73387333e-01
  9.75098704e-01  9.75614663e-01  9.79847157e-01  9.80507836e-01
  9.83120578e-01  9.84621424e-01  9.87755137e-01  9.88297648e-01
  9.89482137e-01  9.90775848e-01  9.92765768e-01  9.93401830e-01
  9.95832291e-01  9.98046311e-01  9.98589044e-01  9.99614798e-01
  1.00226391e+00  1.00523395e+00  1.00613388e+00  1.00885549e+00
  1.01116036e+00  1.01181145e+00  1.01339558e+00  1.01486076e+00
  1.01793249e+00  1.01873204e+00  1.02143892e+00  1.02253341e+00
  1.02372162e+00  1.02574885e+00  1.02740810e+00  1.03035052e+00
  1.03361298e+00  1.03708657e+00  1.03932977e+00  1.04096403e+00
  1.04468706e+00  1.04646798e+00  1.05086997e+00  1.05110600e+00
  1.05300038e+00  1.05682345e+00  1.05753430e+00  1.06062341e+00
  1.06269867e+00  1.06525153e+00  1.06657253e+00  1.06835039e+00
  1.07068172e+00  1.07363350e+00  1.07414842e+00  1.07774030e+00
  1.07837678e+00  1.08074630e+00  1.08344391e+00  1.08440823e+00
  1.08666559e+00  1.08776930e+00  1.08917957e+00  1.09028748e+00
  1.09155891e+00  1.09470480e+00  1.09574839e+00  1.09857954e+00
  1.10084537e+00  1.10356208e+00  1.10430022e+00  1.10587104e+00
  1.10778942e+00  1.10878305e+00  1.11167514e+00  1.11311634e+00
  1.11406422e+00  1.11730854e+00  1.11790992e+00  1.12203707e+00
  1.12312923e+00  1.12409009e+00  1.12635521e+00  1.13287324e+00
  1.13491824e+00  1.13615611e+00  1.14015022e+00  1.14259893e+00
  1.14433835e+00  1.14593080e+00  1.14832879e+00  1.15190589e+00
  1.15339272e+00  1.15576454e+00  1.15933539e+00  1.16123985e+00
  1.16221220e+00  1.16296636e+00  1.16479399e+00  1.16865304e+00
  1.16983944e+00  1.17129054e+00  1.17583559e+00  1.17760791e+00
  1.17906547e+00  1.17999065e+00  1.18524542e+00  1.18683971e+00
  1.18800704e+00  1.18935809e+00  1.19048416e+00  1.19533655e+00
  1.19787484e+00  1.19901761e+00  1.19960886e+00  1.20088385e+00
  1.20358559e+00  1.20664521e+00  1.20755993e+00  1.20945392e+00
  1.21090018e+00  1.21358179e+00  1.21627604e+00  1.22236582e+00
  1.22414086e+00  1.22680940e+00  1.22856174e+00  1.23003190e+00
  1.23056504e+00  1.23321816e+00  1.23500384e+00  1.23789561e+00
  1.23944279e+00  1.24667259e+00  1.24816874e+00  1.25086000e+00
  1.25183568e+00  1.25503178e+00  1.25555515e+00  1.26030610e+00
  1.26278276e+00  1.26443034e+00  1.27022118e+00  1.27146008e+00
  1.27205522e+00  1.27498075e+00  1.27736805e+00  1.27839490e+00
  1.28000840e+00  1.28503643e+00  1.28678575e+00  1.28766860e+00
  1.28916734e+00  1.29150741e+00  1.29626050e+00  1.29887925e+00
  1.30155691e+00  1.30496549e+00  1.30791649e+00  1.30812730e+00
  1.31087530e+00  1.31328290e+00  1.31464584e+00  1.31597734e+00
  1.32145928e+00  1.32331095e+00  1.32680958e+00  1.32765162e+00
  1.32940634e+00  1.33369805e+00  1.33472932e+00  1.34372880e+00
  1.34382340e+00  1.34570783e+00  1.34918540e+00  1.35019414e+00
  1.35310175e+00  1.35419802e+00  1.35986235e+00  1.36463655e+00
  1.36621190e+00  1.36807381e+00  1.37032795e+00  1.37067301e+00
  1.37121662e+00  1.37378783e+00  1.37571527e+00  1.37761192e+00
  1.38292103e+00  1.38531508e+00  1.39133109e+00  1.39403106e+00
  1.39829253e+00  1.40165187e+00  1.40454812e+00  1.40703108e+00
  1.41078075e+00  1.41412735e+00  1.41912805e+00  1.41991178e+00
  1.42166655e+00  1.42649484e+00  1.42852955e+00  1.42915573e+00
  1.43144872e+00  1.43556296e+00  1.44406631e+00  1.44421577e+00
  1.44636952e+00  1.45051537e+00  1.45596630e+00  1.45793976e+00
  1.46328229e+00  1.46423304e+00  1.46686751e+00  1.46943899e+00
  1.47143344e+00  1.47681160e+00  1.48100713e+00  1.48610371e+00
  1.49202797e+00  1.49344292e+00  1.49896541e+00  1.50242504e+00
  1.50426532e+00  1.51066356e+00  1.51240877e+00  1.51323961e+00
  1.52079511e+00  1.52229326e+00  1.52724803e+00  1.53646837e+00
  1.53856716e+00  1.54226220e+00  1.54565759e+00  1.54948632e+00
  1.55605472e+00  1.55764314e+00  1.56249420e+00  1.56365975e+00
  1.56630215e+00  1.56974127e+00  1.57153449e+00  1.57833711e+00
  1.58275260e+00  1.58681112e+00  1.58749963e+00  1.59064435e+00
  1.59986980e+00  1.60209786e+00  1.60372230e+00  1.61380110e+00
  1.61515910e+00  1.61918195e+00  1.62431283e+00  1.62809064e+00
  1.63091853e+00  1.63888469e+00  1.64366350e+00  1.64999564e+00
  1.65824807e+00  1.66080381e+00  1.66589651e+00  1.67096569e+00
  1.67525436e+00  1.67716603e+00  1.67920127e+00  1.69420035e+00
  1.69912960e+00  1.70502112e+00  1.70857718e+00  1.71252910e+00
  1.71716525e+00  1.71992196e+00  1.73321866e+00  1.74056062e+00
  1.74208593e+00  1.75144002e+00  1.75380161e+00  1.75684261e+00
  1.77915669e+00  1.78558470e+00  1.79647794e+00  1.82630778e+00
  1.83543040e+00  1.84762962e+00  1.85538642e+00  1.87130124e+00
  1.87349498e+00  1.87947054e+00  1.91193553e+00  1.93675085e+00
  1.94343346e+00  1.99741622e+00  2.02137550e+00  2.07734305e+00
  2.13461640e+00  2.18211354e+00  2.24646404e+00  2.26770261e+00
  2.29403521e+00  2.35590821e+00  2.41573393e+00  2.44948729e+00
  2.48056128e+00  2.49537965e+00  2.52679609e+00  2.55127280e+00
  2.59489849e+00  2.63898026e+00  2.67963689e+00  2.70137308e+00
  2.77766347e+00  2.79601294e+00  2.80557997e+00  2.84868164e+00
  2.85928218e+00  2.88084011e+00  2.96548493e+00  2.98972473e+00
  3.02055970e+00  3.07511604e+00  3.08260521e+00  3.13140415e+00
  3.14217931e+00  3.16540058e+00  3.17465796e+00  3.23236854e+00
  3.24975469e+00  3.25827296e+00  3.27952124e+00  3.28857636e+00
  3.30430351e+00  3.33411269e+00  3.33592681e+00  3.34689166e+00
  3.39924394e+00  3.41948360e+00  3.42707239e+00  3.43100057e+00
  3.43422387e+00  3.44123940e+00  3.49058019e+00  3.49286441e+00
  3.49764426e+00  3.51163764e+00  3.52199198e+00  3.54127181e+00
  3.56476691e+00  3.56900673e+00  3.58510644e+00  3.60999348e+00
  3.61377913e+00  3.62034041e+00  3.64468972e+00  3.66519750e+00
  3.66690134e+00  3.67175458e+00  3.70233532e+00  3.73322877e+00
  3.73934972e+00  3.75161016e+00  3.76667840e+00  3.78783956e+00
  3.82356233e+00  3.82534146e+00  3.82890905e+00  3.84715231e+00
  3.85918605e+00  3.87075078e+00  3.91107994e+00  3.92936400e+00
  3.93989062e+00  3.95967628e+00  3.99390127e+00  4.02128939e+00
  4.03329241e+00  4.05318319e+00  4.09154503e+00  4.13630929e+00
  4.20634552e+00  4.22655251e+00  4.24722137e+00  4.25778074e+00
  4.28115988e+00  4.30891298e+00  4.31351028e+00  4.36291454e+00
  4.37403563e+00  4.38877325e+00  4.39676969e+00  4.42009416e+00
  4.47561534e+00  4.49145068e+00  4.49211428e+00  4.62261332e+00
  4.64657496e+00  4.66191972e+00  4.78644022e+00  4.79171640e+00
  4.82889122e+00  4.86720220e+00  4.93342831e+00  4.96914988e+00
  4.98333415e+00  5.02715993e+00  5.06131870e+00  5.12481133e+00
  5.21270784e+00  5.30096074e+00  5.30834694e+00  5.36026015e+00
  5.40732531e+00  5.49212860e+00  5.49455224e+00  5.49928462e+00
  5.62133618e+00  5.68544912e+00  5.69547207e+00  5.74707591e+00
  5.75430506e+00  5.78213375e+00  5.82360071e+00  5.92794667e+00
  5.96828076e+00  5.99818509e+00  6.05892345e+00  6.07882000e+00
  6.11178041e+00  6.16745758e+00  6.19997590e+00  6.24908406e+00
  6.26043838e+00  6.37958581e+00  6.42464456e+00  6.45315468e+00
  6.49526254e+00  6.60115410e+00  6.64015789e+00  6.76584769e+00
  6.84481893e+00  6.87351303e+00  6.92911268e+00  7.11742376e+00
  7.14569700e+00  7.17302815e+00  7.22575831e+00  7.23877887e+00
  7.27842740e+00  7.31173809e+00  7.38490974e+00  7.38605206e+00
  7.45609968e+00  7.55687690e+00  7.62423553e+00  7.68264248e+00
  7.78432293e+00  7.80531211e+00  8.07536104e+00  8.10372209e+00
  8.15192302e+00  8.51018593e+00  1.13319714e+01  1.31798142e+01
  1.33996883e+01  1.41092825e+01  1.58412394e+01  1.76185147e+01]
