#INFO: **** input file is /burg/ccce/users/eav2136/projects/batteries/01_mp2/hf_script.py ****
#!/usr/bin/env python3
from pyscf import gto, scf, mp
import sys
from fileutils import dump
import h5py

mol = gto.Mole()
mol.verbose = 10
mol.atom = f"geom_{sys.argv[1]}.xyz"
mol.basis = "ccpvtz"
mol.unit = "ANG"
mol.build()

mf = scf.RHF(mol)
conv, e_tot, mo_energy, mo_coeff, mo_occ = mf.kernel()

dataout = {}
dataout["e_tot"] = e_tot
dataout["conv"] = conv
dump(dataout, f"data/hf_geom_{sys.argv[1]}.json")

with h5py.File(f"data/hf_geom_{sys.argv[1]}.h5", "w") as f:
    f.create_dataset("mo_energy", data=mo_energy)
    f.create_dataset("mo_coeff", data=mo_coeff)#INFO: ******************** input file end ********************


System: uname_result(system='Linux', node='g144', release='4.18.0-193.el8.x86_64', version='#1 SMP Fri Mar 27 14:35:58 UTC 2020', machine='x86_64')  Threads 32
Python 3.10.12 (main, Jul 29 2023, 11:27:27) [GCC 13.2.0]
numpy 1.25.1  scipy 1.10.1
Date: Fri Jan 19 10:46:55 2024
PySCF version 2.0.1
PySCF path  /burg/berkelbach/users/eav2136/builds/pyscf/projected-cvs/pyscf
GIT ORIG_HEAD 0bfbc692adf3ea63b8a509210433219cd1c472a2
GIT HEAD (branch projected-cvs) e14caaa2dddc538b9be2d86f01e5b456fc92da36

[ENV] PYSCF_TMPDIR /burg/ccce/users/eav2136/projects/batteries/01_mp2/tmp
[ENV] PYSCF_MAX_MEMORY 700000
[CONFIG] DEBUG = False
[CONFIG] MAX_MEMORY = 700000
[CONFIG] TMPDIR = /burg/ccce/users/eav2136/projects/batteries/01_mp2/tmp
[CONFIG] UNIT = angstrom
[CONFIG] VERBOSE = 3
[CONFIG] conf_file = None
[INPUT] verbose = 10
[INPUT] max_memory = 700000 
[INPUT] num. atoms = 16
[INPUT] num. electrons = 64
[INPUT] charge = 0
[INPUT] spin (= nelec alpha-beta = 2S) = 0
[INPUT] symmetry False subgroup None
[INPUT] Mole.unit = ANG
[INPUT]  1 C      4.889700000000   4.599650000000  10.258310000000 AA    9.240193831286   8.692078768856  19.385396400887 Bohr
[INPUT]  2 O      4.870170000000   4.245790000000   8.952570000000 AA    9.203287480073   8.023380282417  16.917905410997 Bohr
[INPUT]  3 C      5.310840000000   5.193710000000   8.233300000000 AA   10.036033091385   9.814689470415  15.558682101382 Bohr
[INPUT]  4 O      5.765780000000   6.111200000000   8.982240000000 AA   10.895745094495  11.548494292442  16.973973585113 Bohr
[INPUT]  5 C      5.774150000000   5.702340000000  10.272330000000 AA   10.911562102157  10.775860869152  19.411890361153 Bohr
[INPUT]  6 O      5.299720000000   5.216150000000   7.112960000000 AA   10.015019336880   9.857094924650  13.441546334986 Bohr
[INPUT]  7 H      5.212360000000   3.798320000000  10.814180000000 AA    9.849932862638   7.177784533458  20.435838461749 Bohr
[INPUT]  8 H      3.953110000000   4.871240000000  10.548100000000 AA    7.470295240279   9.205309487026  19.933020134525 Bohr
[INPUT]  9 H      5.464720000000   6.479910000000  10.867980000000 AA   10.326824147433  12.245255211830  20.537505727251 Bohr
[INPUT] 10 H      6.716790000000   5.418990000000  10.529430000000 AA   12.692893536217  10.240406971757  19.897738947779 Bohr
[INPUT] 11 Li     5.263950000000   5.263950000000   5.263950000000 AA    9.947423833404   9.947423833404   9.947423833404 Bohr
[INPUT] 12 Li     5.263950000000   1.754650000000   5.263950000000 AA    9.947423833404   3.315807944468   9.947423833404 Bohr
[INPUT] 13 Li     8.773250000000   5.263950000000   5.263950000000 AA   16.579039722340   9.947423833404   9.947423833404 Bohr
[INPUT] 14 Li     1.754650000000   5.263950000000   5.263950000000 AA    3.315807944468   9.947423833404   9.947423833404 Bohr
[INPUT] 15 Li     5.263950000000   8.773250000000   5.263950000000 AA    9.947423833404  16.579039722340   9.947423833404 Bohr
[INPUT] 16 Li     7.018600000000   3.509300000000   3.509300000000 AA   13.263231777872   6.631615888936   6.631615888936 Bohr
[INPUT] ---------------- BASIS SET ---------------- 
[INPUT] l, kappa, [nprim/nctr], expnt,             c_1 c_2 ...
[INPUT] Li
[INPUT] 0    0    [9    /2   ]  5988              0.000133 -2.1e-05
                                898.9             0.001025 -0.000161
                                205.9             0.005272 -0.00082
                                59.24             0.020929 -0.003326
                                19.87             0.06634 -0.010519
                                7.406             0.165775 -0.028097
                                2.93              0.315038 -0.055936
                                1.189             0.393523 -0.099237
                                0.4798            0.19087 -0.112189
[INPUT] 0    0    [1    /1   ]  0.07509              1
[INPUT] 0    0    [1    /1   ]  0.02832              1
[INPUT] 1    0    [3    /1   ]  3.266             0.00863
                                0.6511            0.047538
                                0.1696            0.209772
[INPUT] 1    0    [1    /1   ]  0.05578              1
[INPUT] 1    0    [1    /1   ]  0.0205               1
[INPUT] 2    0    [1    /1   ]  0.1874               1
[INPUT] 2    0    [1    /1   ]  0.0801               1
[INPUT] 3    0    [1    /1   ]  0.1829               1
[INPUT] H
[INPUT] 0    0    [3    /1   ]  33.87             0.006068
                                5.095             0.045308
                                1.159             0.202822
[INPUT] 0    0    [1    /1   ]  0.3258               1
[INPUT] 0    0    [1    /1   ]  0.1027               1
[INPUT] 1    0    [1    /1   ]  1.407                1
[INPUT] 1    0    [1    /1   ]  0.388                1
[INPUT] 2    0    [1    /1   ]  1.057                1
[INPUT] C
[INPUT] 0    0    [8    /2   ]  8236              0.000531 -0.000113
                                1235              0.004108 -0.000878
                                280.8             0.021087 -0.00454
                                79.27             0.081853 -0.018133
                                25.59             0.234817 -0.05576
                                8.997             0.434401 -0.126895
                                3.319             0.346129 -0.170352
                                0.3643            -0.008983 0.598684
[INPUT] 0    0    [1    /1   ]  0.9059               1
[INPUT] 0    0    [1    /1   ]  0.1285               1
[INPUT] 1    0    [3    /1   ]  18.71             0.014031
                                4.133             0.086866
                                1.2               0.290216
[INPUT] 1    0    [1    /1   ]  0.3827               1
[INPUT] 1    0    [1    /1   ]  0.1209               1
[INPUT] 2    0    [1    /1   ]  1.097                1
[INPUT] 2    0    [1    /1   ]  0.318                1
[INPUT] 3    0    [1    /1   ]  0.761                1
[INPUT] O
[INPUT] 0    0    [8    /2   ]  15330             0.000508 -0.000115
                                2299              0.003929 -0.000895
                                522.4             0.020243 -0.004636
                                147.3             0.079181 -0.018724
                                47.55             0.230687 -0.058463
                                16.76             0.433118 -0.136463
                                6.207             0.35026 -0.17574
                                0.6882            -0.008154 0.603418
[INPUT] 0    0    [1    /1   ]  1.752                1
[INPUT] 0    0    [1    /1   ]  0.2384               1
[INPUT] 1    0    [3    /1   ]  34.46             0.015928
                                7.749             0.09974
                                2.28              0.310492
[INPUT] 1    0    [1    /1   ]  0.7156               1
[INPUT] 1    0    [1    /1   ]  0.214                1
[INPUT] 2    0    [1    /1   ]  2.314                1
[INPUT] 2    0    [1    /1   ]  0.645                1
[INPUT] 3    0    [1    /1   ]  1.428                1

nuclear repulsion = 370.7735474751
number of shells = 132
number of NR pGTOs = 574
number of NR cGTOs = 416
basis = ccpvtz
ecp = {}
bas 0, expnt(s) = [8.236e+03 1.235e+03 2.808e+02 7.927e+01 2.559e+01 8.997e+00 3.319e+00
 3.643e-01]
bas 1, expnt(s) = [0.9059]
bas 2, expnt(s) = [0.1285]
bas 3, expnt(s) = [18.71   4.133  1.2  ]
bas 4, expnt(s) = [0.3827]
bas 5, expnt(s) = [0.1209]
bas 6, expnt(s) = [1.097]
bas 7, expnt(s) = [0.318]
bas 8, expnt(s) = [0.761]
bas 9, expnt(s) = [1.533e+04 2.299e+03 5.224e+02 1.473e+02 4.755e+01 1.676e+01 6.207e+00
 6.882e-01]
bas 10, expnt(s) = [1.752]
bas 11, expnt(s) = [0.2384]
bas 12, expnt(s) = [34.46   7.749  2.28 ]
bas 13, expnt(s) = [0.7156]
bas 14, expnt(s) = [0.214]
bas 15, expnt(s) = [2.314]
bas 16, expnt(s) = [0.645]
bas 17, expnt(s) = [1.428]
bas 18, expnt(s) = [8.236e+03 1.235e+03 2.808e+02 7.927e+01 2.559e+01 8.997e+00 3.319e+00
 3.643e-01]
bas 19, expnt(s) = [0.9059]
bas 20, expnt(s) = [0.1285]
bas 21, expnt(s) = [18.71   4.133  1.2  ]
bas 22, expnt(s) = [0.3827]
bas 23, expnt(s) = [0.1209]
bas 24, expnt(s) = [1.097]
bas 25, expnt(s) = [0.318]
bas 26, expnt(s) = [0.761]
bas 27, expnt(s) = [1.533e+04 2.299e+03 5.224e+02 1.473e+02 4.755e+01 1.676e+01 6.207e+00
 6.882e-01]
bas 28, expnt(s) = [1.752]
bas 29, expnt(s) = [0.2384]
bas 30, expnt(s) = [34.46   7.749  2.28 ]
bas 31, expnt(s) = [0.7156]
bas 32, expnt(s) = [0.214]
bas 33, expnt(s) = [2.314]
bas 34, expnt(s) = [0.645]
bas 35, expnt(s) = [1.428]
bas 36, expnt(s) = [8.236e+03 1.235e+03 2.808e+02 7.927e+01 2.559e+01 8.997e+00 3.319e+00
 3.643e-01]
bas 37, expnt(s) = [0.9059]
bas 38, expnt(s) = [0.1285]
bas 39, expnt(s) = [18.71   4.133  1.2  ]
bas 40, expnt(s) = [0.3827]
bas 41, expnt(s) = [0.1209]
bas 42, expnt(s) = [1.097]
bas 43, expnt(s) = [0.318]
bas 44, expnt(s) = [0.761]
bas 45, expnt(s) = [1.533e+04 2.299e+03 5.224e+02 1.473e+02 4.755e+01 1.676e+01 6.207e+00
 6.882e-01]
bas 46, expnt(s) = [1.752]
bas 47, expnt(s) = [0.2384]
bas 48, expnt(s) = [34.46   7.749  2.28 ]
bas 49, expnt(s) = [0.7156]
bas 50, expnt(s) = [0.214]
bas 51, expnt(s) = [2.314]
bas 52, expnt(s) = [0.645]
bas 53, expnt(s) = [1.428]
bas 54, expnt(s) = [33.87   5.095  1.159]
bas 55, expnt(s) = [0.3258]
bas 56, expnt(s) = [0.1027]
bas 57, expnt(s) = [1.407]
bas 58, expnt(s) = [0.388]
bas 59, expnt(s) = [1.057]
bas 60, expnt(s) = [33.87   5.095  1.159]
bas 61, expnt(s) = [0.3258]
bas 62, expnt(s) = [0.1027]
bas 63, expnt(s) = [1.407]
bas 64, expnt(s) = [0.388]
bas 65, expnt(s) = [1.057]
bas 66, expnt(s) = [33.87   5.095  1.159]
bas 67, expnt(s) = [0.3258]
bas 68, expnt(s) = [0.1027]
bas 69, expnt(s) = [1.407]
bas 70, expnt(s) = [0.388]
bas 71, expnt(s) = [1.057]
bas 72, expnt(s) = [33.87   5.095  1.159]
bas 73, expnt(s) = [0.3258]
bas 74, expnt(s) = [0.1027]
bas 75, expnt(s) = [1.407]
bas 76, expnt(s) = [0.388]
bas 77, expnt(s) = [1.057]
bas 78, expnt(s) = [5.988e+03 8.989e+02 2.059e+02 5.924e+01 1.987e+01 7.406e+00 2.930e+00
 1.189e+00 4.798e-01]
bas 79, expnt(s) = [0.07509]
bas 80, expnt(s) = [0.02832]
bas 81, expnt(s) = [3.266  0.6511 0.1696]
bas 82, expnt(s) = [0.05578]
bas 83, expnt(s) = [0.0205]
bas 84, expnt(s) = [0.1874]
bas 85, expnt(s) = [0.0801]
bas 86, expnt(s) = [0.1829]
bas 87, expnt(s) = [5.988e+03 8.989e+02 2.059e+02 5.924e+01 1.987e+01 7.406e+00 2.930e+00
 1.189e+00 4.798e-01]
bas 88, expnt(s) = [0.07509]
bas 89, expnt(s) = [0.02832]
bas 90, expnt(s) = [3.266  0.6511 0.1696]
bas 91, expnt(s) = [0.05578]
bas 92, expnt(s) = [0.0205]
bas 93, expnt(s) = [0.1874]
bas 94, expnt(s) = [0.0801]
bas 95, expnt(s) = [0.1829]
bas 96, expnt(s) = [5.988e+03 8.989e+02 2.059e+02 5.924e+01 1.987e+01 7.406e+00 2.930e+00
 1.189e+00 4.798e-01]
bas 97, expnt(s) = [0.07509]
bas 98, expnt(s) = [0.02832]
bas 99, expnt(s) = [3.266  0.6511 0.1696]
bas 100, expnt(s) = [0.05578]
bas 101, expnt(s) = [0.0205]
bas 102, expnt(s) = [0.1874]
bas 103, expnt(s) = [0.0801]
bas 104, expnt(s) = [0.1829]
bas 105, expnt(s) = [5.988e+03 8.989e+02 2.059e+02 5.924e+01 1.987e+01 7.406e+00 2.930e+00
 1.189e+00 4.798e-01]
bas 106, expnt(s) = [0.07509]
bas 107, expnt(s) = [0.02832]
bas 108, expnt(s) = [3.266  0.6511 0.1696]
bas 109, expnt(s) = [0.05578]
bas 110, expnt(s) = [0.0205]
bas 111, expnt(s) = [0.1874]
bas 112, expnt(s) = [0.0801]
bas 113, expnt(s) = [0.1829]
bas 114, expnt(s) = [5.988e+03 8.989e+02 2.059e+02 5.924e+01 1.987e+01 7.406e+00 2.930e+00
 1.189e+00 4.798e-01]
bas 115, expnt(s) = [0.07509]
bas 116, expnt(s) = [0.02832]
bas 117, expnt(s) = [3.266  0.6511 0.1696]
bas 118, expnt(s) = [0.05578]
bas 119, expnt(s) = [0.0205]
bas 120, expnt(s) = [0.1874]
bas 121, expnt(s) = [0.0801]
bas 122, expnt(s) = [0.1829]
bas 123, expnt(s) = [5.988e+03 8.989e+02 2.059e+02 5.924e+01 1.987e+01 7.406e+00 2.930e+00
 1.189e+00 4.798e-01]
bas 124, expnt(s) = [0.07509]
bas 125, expnt(s) = [0.02832]
bas 126, expnt(s) = [3.266  0.6511 0.1696]
bas 127, expnt(s) = [0.05578]
bas 128, expnt(s) = [0.0205]
bas 129, expnt(s) = [0.1874]
bas 130, expnt(s) = [0.0801]
bas 131, expnt(s) = [0.1829]
CPU time:         0.69
arg.atm = [[ 6 20  1 23  0  0]
 [ 8 24  1 27  0  0]
 [ 6 28  1 31  0  0]
 [ 8 32  1 35  0  0]
 [ 6 36  1 39  0  0]
 [ 8 40  1 43  0  0]
 [ 1 44  1 47  0  0]
 [ 1 48  1 51  0  0]
 [ 1 52  1 55  0  0]
 [ 1 56  1 59  0  0]
 [ 3 60  1 63  0  0]
 [ 3 64  1 67  0  0]
 [ 3 68  1 71  0  0]
 [ 3 72  1 75  0  0]
 [ 3 76  1 79  0  0]
 [ 3 80  1 83  0  0]]
arg.bas = [[  0   0   8 ... 147 155   0]
 [  0   0   1 ... 171 172   0]
 [  0   0   1 ... 173 174   0]
 ...
 [ 15   2   1 ... 125 126   0]
 [ 15   2   1 ... 127 128   0]
 [ 15   3   1 ... 129 130   0]]
arg.env = [ 0.00000000e+00  0.00000000e+00  0.00000000e+00  0.00000000e+00
  0.00000000e+00  0.00000000e+00  0.00000000e+00  0.00000000e+00
  0.00000000e+00  0.00000000e+00  0.00000000e+00  0.00000000e+00
  0.00000000e+00  0.00000000e+00  0.00000000e+00  0.00000000e+00
  0.00000000e+00  0.00000000e+00  0.00000000e+00  0.00000000e+00
  9.24019383e+00  8.69207877e+00  1.93853964e+01  0.00000000e+00
  9.20328748e+00  8.02338028e+00  1.69179054e+01  0.00000000e+00
  1.00360331e+01  9.81468947e+00  1.55586821e+01  0.00000000e+00
  1.08957451e+01  1.15484943e+01  1.69739736e+01  0.00000000e+00
  1.09115621e+01  1.07758609e+01  1.94118904e+01  0.00000000e+00
  1.00150193e+01  9.85709492e+00  1.34415463e+01  0.00000000e+00
  9.84993286e+00  7.17778453e+00  2.04358385e+01  0.00000000e+00
  7.47029524e+00  9.20530949e+00  1.99330201e+01  0.00000000e+00
  1.03268241e+01  1.22452552e+01  2.05375057e+01  0.00000000e+00
  1.26928935e+01  1.02404070e+01  1.98977389e+01  0.00000000e+00
  9.94742383e+00  9.94742383e+00  9.94742383e+00  0.00000000e+00
  9.94742383e+00  3.31580794e+00  9.94742383e+00  0.00000000e+00
  1.65790397e+01  9.94742383e+00  9.94742383e+00  0.00000000e+00
  3.31580794e+00  9.94742383e+00  9.94742383e+00  0.00000000e+00
  9.94742383e+00  1.65790397e+01  9.94742383e+00  0.00000000e+00
  1.32632318e+01  6.63161589e+00  6.63161589e+00  0.00000000e+00
  5.98800000e+03  8.98900000e+02  2.05900000e+02  5.92400000e+01
  1.98700000e+01  7.40600000e+00  2.93000000e+00  1.18900000e+00
  4.79800000e-01  2.29069316e-01  4.25756548e-01  7.25056076e-01
  1.13074246e+00  1.57971158e+00  1.88304523e+00  1.78512072e+00
  1.13373211e+00  2.78411257e-01 -1.33552750e-01 -2.46934407e-01
 -4.16416863e-01 -6.63522613e-01 -9.24900580e-01 -1.17847379e+00
 -1.17034612e+00 -1.05567981e+00 -6.04251387e-01  7.50900000e-02
  3.62411193e-01  2.83200000e-02  1.74415453e-01  3.26600000e+00
  6.51100000e-01  1.69600000e-01  4.55280795e-01  3.34078737e-01
  2.74333054e-01  5.57800000e-02  7.90828897e-02  2.05000000e-02
  2.26295917e-02  1.87400000e-01  1.39275961e-01  8.01000000e-02
  3.14692425e-02  1.82900000e-01  4.31510332e-02  3.38700000e+01
  5.09500000e+00  1.15900000e+00  9.04334519e-01  1.63100455e+00
  2.40491525e+00  3.25800000e-01  1.08950276e+00  1.02700000e-01
  4.58345379e-01  1.40700000e+00  4.47045795e+00  3.88000000e-01
  8.93354953e-01  1.05700000e+00  2.87515071e+00  8.23600000e+03
  1.23500000e+03  2.80800000e+02  7.92700000e+01  2.55900000e+01
  8.99700000e+00  3.31900000e+00  3.64300000e-01  1.18480296e+00
  2.20874210e+00  3.73316324e+00  5.61216719e+00  6.89519583e+00
  5.82409515e+00  2.19663441e+00 -1.08712663e-02 -4.28969670e-01
 -8.03166571e-01 -1.36745981e+00 -2.11525239e+00 -2.78571299e+00
 -2.89453423e+00 -1.83934657e+00  1.23268730e+00  9.05900000e-01
  2.34598494e+00  1.28500000e-01  5.42241022e-01  1.87100000e+01
  4.13300000e+00  1.20000000e+00  4.47572721e+00  4.19627876e+00
  2.98800046e+00  3.82700000e-01  8.78127282e-01  1.20900000e-01
  2.07977938e-01  1.09700000e+00  3.06825171e+00  3.18000000e-01
  3.51379844e-01  7.61000000e-01  1.06690522e+00  1.53300000e+04
  2.29900000e+03  5.22400000e+02  1.47300000e+02  4.75500000e+01
  1.67600000e+01  6.20700000e+00  6.88200000e-01  1.81067529e+00
  3.37486577e+00  5.72265412e+00  8.66150357e+00  1.08070276e+01
  9.28179538e+00  3.56346173e+00 -1.59395830e-02 -6.86527364e-01
 -1.28759909e+00 -2.19507417e+00 -3.43047366e+00 -4.58719692e+00
 -4.89805685e+00 -2.99457591e+00  1.97563931e+00  1.75200000e+00
  3.84738459e+00  2.38400000e-01  8.61975084e-01  3.44600000e+01
  7.74900000e+00  2.28000000e+00  1.00262994e+01  9.72213774e+00
  6.55849668e+00  7.15600000e-01  1.92009319e+00  2.14000000e-01
  4.24621137e-01  2.31400000e+00  1.13283134e+01  6.45000000e-01
  1.21132000e+00  1.42800000e+00  4.39692268e+00]
ecpbas  = []


******** <class 'pyscf.scf.hf.RHF'> ********
method = RHF
initial guess = minao
damping factor = 0
level_shift factor = 0
DIIS = <class 'pyscf.scf.diis.CDIIS'>
diis_start_cycle = 1
diis_space = 8
SCF conv_tol = 1e-09
SCF conv_tol_grad = None
SCF max_cycles = 50
direct_scf = True
direct_scf_tol = 1e-13
chkfile to save SCF result = /burg/ccce/users/eav2136/projects/batteries/01_mp2/tmp/tmpjw1m18v_
max_memory 700000 MB (current use 95 MB)
Set gradient conv threshold to 3.16228e-05
Nelec from initial guess = 63.99745293050319
E1 = -1258.7604993270052  E_coul = 499.73890436684445
init E= -388.24804748506
cond(S) = 23946.94898252645
    CPU time for initialize scf    157.79 sec, wall time      5.03 sec
  HOMO = -0.10420693580955  LUMO = -0.0536076289216499
  mo_energy =
[-2.08431462e+01 -2.07936841e+01 -2.07926908e+01 -1.13785870e+01
 -1.13528811e+01 -1.13477613e+01 -2.49710984e+00 -2.49129483e+00
 -2.48393886e+00 -2.48348561e+00 -2.47898726e+00 -2.47887394e+00
 -2.16834904e+00 -1.79515131e+00 -1.65771711e+00 -1.33678308e+00
 -1.05199413e+00 -8.99952168e-01 -8.02774441e-01 -7.83541214e-01
 -6.88053569e-01 -6.60103274e-01 -6.20409774e-01 -5.69899739e-01
 -4.99893732e-01 -4.92739230e-01 -4.37371311e-01 -4.04023630e-01
 -3.24508595e-01 -2.52470387e-01 -1.22734893e-01 -1.04206936e-01
 -5.36076289e-02 -2.59372268e-02 -1.37225765e-02  1.15452995e-02
  2.23803467e-02  2.49976932e-02  2.89139246e-02  3.29478817e-02
  4.40169095e-02  4.41368192e-02  4.58590975e-02  5.15443524e-02
  5.36431421e-02  5.40389317e-02  6.04689328e-02  7.07755915e-02
  7.27667711e-02  7.42433975e-02  7.57295064e-02  8.01473594e-02
  8.04681733e-02  9.27884690e-02  9.68843122e-02  1.00312203e-01
  1.12044590e-01  1.18462499e-01  1.19704849e-01  1.23335068e-01
  1.28860000e-01  1.31210422e-01  1.32206910e-01  1.35301858e-01
  1.39331240e-01  1.43801029e-01  1.46661524e-01  1.50765802e-01
  1.63753031e-01  1.79371710e-01  1.82558926e-01  1.88489553e-01
  1.90297582e-01  1.92131643e-01  1.97719349e-01  2.02879013e-01
  2.04922997e-01  2.09159064e-01  2.09625415e-01  2.23716680e-01
  2.24560611e-01  2.28752283e-01  2.33396408e-01  2.35146653e-01
  2.38845761e-01  2.46342183e-01  2.49503946e-01  2.53670330e-01
  2.57928105e-01  2.72758961e-01  2.82452733e-01  2.84710471e-01
  2.88069256e-01  2.91295167e-01  3.02992542e-01  3.13006252e-01
  3.15545687e-01  3.18460486e-01  3.26283080e-01  3.28007993e-01
  3.39768737e-01  3.42685100e-01  3.45468256e-01  3.53275523e-01
  3.60196769e-01  3.65052117e-01  3.76032913e-01  3.78419491e-01
  3.83716966e-01  3.89015964e-01  3.96202969e-01  3.99563493e-01
  4.04408698e-01  4.10876575e-01  4.22477684e-01  4.36686790e-01
  4.43719451e-01  4.47589656e-01  4.54581925e-01  4.56982559e-01
  4.60942698e-01  4.71225012e-01  4.72714280e-01  4.77522882e-01
  4.79486852e-01  4.80318880e-01  4.91653008e-01  4.94596913e-01
  5.10460466e-01  5.11628585e-01  5.20861389e-01  5.23227760e-01
  5.32950013e-01  5.43555813e-01  5.52718687e-01  5.55078388e-01
  5.63423980e-01  5.68479360e-01  5.71188502e-01  5.78055184e-01
  6.01902758e-01  6.09868105e-01  6.18620518e-01  6.20929633e-01
  6.27010769e-01  6.35906621e-01  6.37962448e-01  6.45035785e-01
  6.53703403e-01  6.64602830e-01  6.68772300e-01  6.75235355e-01
  6.81898828e-01  6.86755591e-01  6.95940916e-01  7.03060878e-01
  7.10072312e-01  7.11943116e-01  7.17705488e-01  7.24433604e-01
  7.27137939e-01  7.29196998e-01  7.31319317e-01  7.33657525e-01
  7.37815164e-01  7.38812962e-01  7.40751842e-01  7.46948423e-01
  7.51598550e-01  7.53256710e-01  7.54884985e-01  7.62413120e-01
  7.64818052e-01  7.70004201e-01  7.73277765e-01  7.75758459e-01
  7.81536711e-01  7.86467906e-01  7.90926342e-01  7.93249767e-01
  7.99348470e-01  8.03271968e-01  8.06759588e-01  8.13065527e-01
  8.14828032e-01  8.20272677e-01  8.33495805e-01  8.41369608e-01
  8.47966006e-01  8.53612824e-01  8.58369948e-01  8.59146736e-01
  8.66632975e-01  8.78183380e-01  8.85906961e-01  8.86718384e-01
  8.97531999e-01  9.01595965e-01  9.10069695e-01  9.12886996e-01
  9.22936286e-01  9.26400174e-01  9.34925036e-01  9.41240212e-01
  9.47751068e-01  9.60060336e-01  9.61316020e-01  9.66239996e-01
  9.71885707e-01  9.72840032e-01  9.77805818e-01  9.90819739e-01
  1.00095132e+00  1.00689379e+00  1.01760360e+00  1.03841977e+00
  1.04291964e+00  1.04597845e+00  1.05433731e+00  1.06419563e+00
  1.07265164e+00  1.08188348e+00  1.08673347e+00  1.09604647e+00
  1.10939869e+00  1.11446545e+00  1.12277930e+00  1.13522977e+00
  1.14042275e+00  1.14429422e+00  1.15694275e+00  1.16909570e+00
  1.20716297e+00  1.21041138e+00  1.21264068e+00  1.22069628e+00
  1.24840237e+00  1.25662558e+00  1.26338239e+00  1.28197851e+00
  1.29410528e+00  1.29558739e+00  1.30116996e+00  1.33419408e+00
  1.33735083e+00  1.40060827e+00  1.41767805e+00  1.45111837e+00
  1.46600684e+00  1.49592295e+00  1.51493228e+00  1.56415135e+00
  1.56759794e+00  1.58461448e+00  1.59613649e+00  1.64651066e+00
  1.66455716e+00  1.70475958e+00  1.79513326e+00  1.83036343e+00
  1.85259906e+00  1.87464408e+00  1.92678625e+00  1.98419586e+00
  2.02242175e+00  2.05009525e+00  2.12588621e+00  2.18790898e+00
  2.24916903e+00  2.28460753e+00  2.31777553e+00  2.37575648e+00
  2.43183455e+00  2.43819128e+00  2.48016077e+00  2.52510041e+00
  2.58603180e+00  2.63383974e+00  2.64972179e+00  2.66882119e+00
  2.71202672e+00  2.76487088e+00  2.80298529e+00  2.81264366e+00
  2.84107594e+00  2.86902317e+00  2.88389333e+00  2.95962207e+00
  3.00107905e+00  3.03800200e+00  3.05770023e+00  3.07669312e+00
  3.08899114e+00  3.12278358e+00  3.13189931e+00  3.17213277e+00
  3.18198389e+00  3.19426019e+00  3.23697721e+00  3.27843757e+00
  3.29854115e+00  3.30236754e+00  3.34332852e+00  3.34590096e+00
  3.36618660e+00  3.38661111e+00  3.39292480e+00  3.42164379e+00
  3.45259220e+00  3.46976099e+00  3.50919625e+00  3.50976288e+00
  3.53503770e+00  3.54041722e+00  3.60813697e+00  3.66965076e+00
  3.67112032e+00  3.68383125e+00  3.71776640e+00  3.76020349e+00
  3.78368289e+00  3.84598872e+00  3.86769967e+00  3.89897563e+00
  3.90313993e+00  3.94891297e+00  3.96743803e+00  4.03001514e+00
  4.03460533e+00  4.04398115e+00  4.06346166e+00  4.09517997e+00
  4.14175101e+00  4.23584880e+00  4.26783861e+00  4.27163531e+00
  4.29188261e+00  4.36868805e+00  4.38467024e+00  4.42242797e+00
  4.42573769e+00  4.48948559e+00  4.52178424e+00  4.52587350e+00
  4.57635478e+00  4.62109150e+00  4.64892974e+00  4.66258012e+00
  4.70078686e+00  4.78149703e+00  4.80849042e+00  4.93387131e+00
  4.98657051e+00  5.02206291e+00  5.03759103e+00  5.10616305e+00
  5.12537356e+00  5.27983831e+00  5.30978681e+00  5.36693244e+00
  5.41178644e+00  5.42169194e+00  5.42888039e+00  5.47597859e+00
  5.50748832e+00  5.50993769e+00  5.57194278e+00  5.64793771e+00
  5.70461825e+00  5.73260013e+00  5.81812816e+00  5.82993158e+00
  5.94139392e+00  5.94631381e+00  6.02009678e+00  6.04696416e+00
  6.09257146e+00  6.10958949e+00  6.13821521e+00  6.16037153e+00
  6.24509457e+00  6.33989255e+00  6.38923708e+00  6.41061800e+00
  6.41778046e+00  6.52828146e+00  6.58998455e+00  6.62658002e+00
  6.67011201e+00  6.75354733e+00  6.82233917e+00  6.86024424e+00
  6.86823713e+00  6.94371829e+00  6.99677865e+00  7.08438596e+00
  7.13785350e+00  7.20622277e+00  7.22549553e+00  7.24473638e+00
  7.26959857e+00  7.36053790e+00  7.40253049e+00  7.44043410e+00
  7.58925866e+00  7.68259554e+00  7.79456682e+00  7.87598605e+00
  8.00077459e+00  8.37190494e+00  1.09532444e+01  1.29777364e+01
  1.32310213e+01  1.39725159e+01  1.58516081e+01  1.72192079e+01]
E1 = -1259.4529846851572  E_coul = 503.6149123842493
cycle= 1 E= -385.064524825808  delta_E= 3.18  |g|= 0.93  |ddm|= 2.61
    CPU time for cycle= 1     25.35 sec, wall time      0.81 sec
diis-norm(errvec)=2.90497
diis-c [-8.43886947  1.        ]
  HOMO = -0.11691543204279  LUMO = -0.00268668697089566
  mo_energy =
[-2.06116869e+01 -2.06101751e+01 -2.02769628e+01 -1.16895293e+01
 -1.14538269e+01 -1.14528416e+01 -2.44753608e+00 -2.44554942e+00
 -2.44394878e+00 -2.44087861e+00 -2.42909266e+00 -2.33622662e+00
 -1.70076520e+00 -1.51628802e+00 -1.44781858e+00 -1.20864323e+00
 -1.04340664e+00 -9.40098096e-01 -8.83225837e-01 -8.23958489e-01
 -7.92252530e-01 -7.23408375e-01 -7.14188618e-01 -6.45251733e-01
 -6.25873504e-01 -6.24193357e-01 -5.41425660e-01 -4.83896696e-01
 -4.46414285e-01 -1.90448008e-01 -1.23992162e-01 -1.16915432e-01
 -2.68668697e-03  1.46747163e-02  2.67217198e-02  3.18532519e-02
  3.65338079e-02  3.87053069e-02  4.47112968e-02  4.92349937e-02
  5.41572639e-02  5.80071792e-02  6.01643956e-02  6.33773010e-02
  6.79215615e-02  7.34229216e-02  7.86182959e-02  8.15834223e-02
  8.43224527e-02  8.53293485e-02  9.28811474e-02  9.35938358e-02
  1.04036314e-01  1.09439885e-01  1.16235621e-01  1.25257391e-01
  1.26996756e-01  1.37677092e-01  1.43488538e-01  1.49590807e-01
  1.50158183e-01  1.55302961e-01  1.57899057e-01  1.59647798e-01
  1.64176355e-01  1.71325618e-01  1.76005837e-01  1.77126624e-01
  1.79792106e-01  1.83715694e-01  1.90529496e-01  1.94970383e-01
  2.07443979e-01  2.17011752e-01  2.25603581e-01  2.29345148e-01
  2.31366079e-01  2.35020836e-01  2.36670021e-01  2.40368328e-01
  2.47701566e-01  2.57075769e-01  2.61795002e-01  2.69222268e-01
  2.71936416e-01  2.76058477e-01  2.80314107e-01  2.82194914e-01
  2.85451461e-01  2.90008253e-01  2.92007774e-01  3.01179612e-01
  3.07182042e-01  3.13466760e-01  3.19204481e-01  3.20880393e-01
  3.32390111e-01  3.39630635e-01  3.49950255e-01  3.50938984e-01
  3.55005037e-01  3.64989333e-01  3.74921673e-01  3.78207301e-01
  3.85997632e-01  3.94933582e-01  4.02101818e-01  4.07877777e-01
  4.18080413e-01  4.22850297e-01  4.34149456e-01  4.38596332e-01
  4.47807500e-01  4.61469013e-01  4.66944799e-01  4.67598678e-01
  4.71606027e-01  4.74341035e-01  4.79519471e-01  4.85828876e-01
  4.88696531e-01  4.95342674e-01  5.00845764e-01  5.03237920e-01
  5.09501723e-01  5.13527956e-01  5.14689452e-01  5.20365033e-01
  5.24312611e-01  5.33372857e-01  5.39580010e-01  5.44225564e-01
  5.52016671e-01  5.70823962e-01  5.72568056e-01  5.87226384e-01
  5.89553400e-01  5.97839169e-01  6.04410776e-01  6.09750709e-01
  6.13836557e-01  6.25349889e-01  6.29101830e-01  6.37569445e-01
  6.50219979e-01  6.58730060e-01  6.70284033e-01  6.72837570e-01
  6.85588435e-01  7.04337335e-01  7.07094455e-01  7.17847243e-01
  7.21657573e-01  7.25207219e-01  7.32814505e-01  7.36565648e-01
  7.46055638e-01  7.49826134e-01  7.52514531e-01  7.55520440e-01
  7.65464325e-01  7.67931359e-01  7.71059275e-01  7.72412500e-01
  7.77834054e-01  7.80649493e-01  7.83624068e-01  7.84645402e-01
  7.87848148e-01  7.92349003e-01  7.94152565e-01  7.97838000e-01
  8.01510535e-01  8.05409026e-01  8.07436158e-01  8.12545851e-01
  8.17665937e-01  8.24206917e-01  8.26526041e-01  8.28920382e-01
  8.32830063e-01  8.38418087e-01  8.42813373e-01  8.46579695e-01
  8.54915864e-01  8.57741752e-01  8.73085470e-01  8.78331327e-01
  8.84090652e-01  8.89106233e-01  8.94426166e-01  8.97393939e-01
  9.06974431e-01  9.17758854e-01  9.20638918e-01  9.25833715e-01
  9.34774819e-01  9.41122505e-01  9.43443506e-01  9.50463164e-01
  9.60932986e-01  9.66516296e-01  9.78277327e-01  9.82202383e-01
  9.87209784e-01  9.89718649e-01  1.00154166e+00  1.00639460e+00
  1.01094118e+00  1.01810608e+00  1.02342045e+00  1.02452809e+00
  1.02889553e+00  1.04056323e+00  1.04483929e+00  1.04792435e+00
  1.05968681e+00  1.07054604e+00  1.07808775e+00  1.09643547e+00
  1.10904823e+00  1.12552556e+00  1.14042187e+00  1.14539876e+00
  1.14806826e+00  1.16656706e+00  1.17204684e+00  1.17761730e+00
  1.18396737e+00  1.20296170e+00  1.20768639e+00  1.21048587e+00
  1.21945870e+00  1.22648433e+00  1.24195626e+00  1.24742221e+00
  1.26183141e+00  1.27096062e+00  1.27876485e+00  1.27947255e+00
  1.29908305e+00  1.30300622e+00  1.32069755e+00  1.35735602e+00
  1.36512865e+00  1.37737418e+00  1.39904790e+00  1.41205375e+00
  1.47448008e+00  1.47706049e+00  1.49222970e+00  1.53573525e+00
  1.56185648e+00  1.58465857e+00  1.58955001e+00  1.62811228e+00
  1.68494797e+00  1.75278449e+00  1.78530983e+00  1.82090199e+00
  1.83344822e+00  1.90161871e+00  1.95312502e+00  1.96677181e+00
  2.03391550e+00  2.11708746e+00  2.16222870e+00  2.21554009e+00
  2.23400764e+00  2.28866148e+00  2.33178082e+00  2.36510774e+00
  2.41913563e+00  2.44261166e+00  2.47565341e+00  2.49931587e+00
  2.55504277e+00  2.58797654e+00  2.62678837e+00  2.65328336e+00
  2.69161069e+00  2.73823239e+00  2.76443408e+00  2.79452016e+00
  2.81380813e+00  2.81818719e+00  2.89640344e+00  2.93581835e+00
  2.94477041e+00  2.97735462e+00  3.02697833e+00  3.04467615e+00
  3.06155012e+00  3.10994428e+00  3.12250712e+00  3.13009271e+00
  3.14579241e+00  3.16134604e+00  3.20664410e+00  3.23064538e+00
  3.23855467e+00  3.24842620e+00  3.26679208e+00  3.27614242e+00
  3.30509168e+00  3.36053869e+00  3.38842311e+00  3.39488650e+00
  3.40920333e+00  3.42578137e+00  3.47823238e+00  3.48354009e+00
  3.50132932e+00  3.55342653e+00  3.59479551e+00  3.62253010e+00
  3.64025415e+00  3.67491216e+00  3.71964545e+00  3.72497429e+00
  3.74521226e+00  3.80424530e+00  3.81522335e+00  3.84766129e+00
  3.86091972e+00  3.90883948e+00  3.91806384e+00  3.97596270e+00
  4.00212879e+00  4.01376230e+00  4.04375478e+00  4.05244545e+00
  4.10900124e+00  4.20496085e+00  4.22969393e+00  4.24850711e+00
  4.25229667e+00  4.34609185e+00  4.34758454e+00  4.37366005e+00
  4.39559637e+00  4.45198837e+00  4.46627003e+00  4.48046606e+00
  4.60085138e+00  4.62402961e+00  4.63892096e+00  4.76789448e+00
  4.79727978e+00  4.80406019e+00  4.89678629e+00  4.90497313e+00
  4.96284157e+00  5.00766023e+00  5.04215604e+00  5.10403251e+00
  5.15672002e+00  5.28240388e+00  5.28798758e+00  5.34549896e+00
  5.39184419e+00  5.45779310e+00  5.47030490e+00  5.47968177e+00
  5.59283596e+00  5.66058262e+00  5.66185015e+00  5.71150073e+00
  5.71692239e+00  5.74679115e+00  5.80553667e+00  5.88106139e+00
  5.94540481e+00  5.98005925e+00  6.03771406e+00  6.05999761e+00
  6.09818249e+00  6.13067411e+00  6.17937487e+00  6.21631949e+00
  6.23678686e+00  6.36184762e+00  6.40807975e+00  6.42986901e+00
  6.43234611e+00  6.57636731e+00  6.61101720e+00  6.72900964e+00
  6.80508261e+00  6.84425004e+00  6.90930920e+00  7.08195031e+00
  7.09407021e+00  7.11668718e+00  7.16975564e+00  7.19522038e+00
  7.24045552e+00  7.28720863e+00  7.31337323e+00  7.36351190e+00
  7.43865484e+00  7.53149232e+00  7.56034158e+00  7.58369968e+00
  7.76053477e+00  7.76727627e+00  7.99747307e+00  8.02841010e+00
  8.08201457e+00  8.48161802e+00  1.09881678e+01  1.30150759e+01
  1.32881158e+01  1.39659260e+01  1.57601309e+01  1.72760090e+01]
E1 = -1260.3254956841695  E_coul = 504.3590069667982
cycle= 2 E= -385.192941242271  delta_E= -0.128  |g|= 0.559  |ddm|= 0.935
    CPU time for cycle= 2     25.35 sec, wall time      0.80 sec
diis-norm(errvec)=1.74562
diis-c [-0.73448371  0.3539582   0.6460418 ]
  HOMO = -0.131615062509394  LUMO = -0.0100832351601799
  mo_energy =
[-2.06392933e+01 -2.06391167e+01 -2.06272023e+01 -1.14429815e+01
 -1.13085200e+01 -1.13074842e+01 -2.46621763e+00 -2.46487894e+00
 -2.45103762e+00 -2.44991731e+00 -2.44090110e+00 -2.41628992e+00
 -1.63427457e+00 -1.49322127e+00 -1.46474015e+00 -1.13241587e+00
 -9.85073939e-01 -8.94842297e-01 -8.29950910e-01 -8.07899758e-01
 -7.50471152e-01 -7.22536952e-01 -6.86959700e-01 -6.75715484e-01
 -6.03436221e-01 -5.80649939e-01 -5.45373994e-01 -5.29733552e-01
 -5.01507605e-01 -2.07802290e-01 -1.41068590e-01 -1.31615063e-01
 -1.00832352e-02  1.00265520e-02  2.04382552e-02  2.70114349e-02
  3.31097285e-02  3.39734905e-02  4.02457373e-02  4.48647374e-02
  5.34178476e-02  5.43281754e-02  5.72721297e-02  6.03238149e-02
  6.45161849e-02  6.92236219e-02  7.86207876e-02  7.94487077e-02
  8.26650205e-02  8.32986674e-02  8.82722561e-02  9.45548474e-02
  9.63102128e-02  1.08943504e-01  1.11901665e-01  1.19260027e-01
  1.23700011e-01  1.34982486e-01  1.39601786e-01  1.43294734e-01
  1.47265926e-01  1.49935730e-01  1.55136268e-01  1.59049896e-01
  1.61995818e-01  1.66536874e-01  1.69696778e-01  1.75598998e-01
  1.81152749e-01  1.95135704e-01  1.97513984e-01  2.04558351e-01
  2.09496158e-01  2.17313385e-01  2.19690671e-01  2.24306941e-01
  2.26712325e-01  2.31351286e-01  2.32178687e-01  2.35051362e-01
  2.44292482e-01  2.48017024e-01  2.53756027e-01  2.60411013e-01
  2.61102268e-01  2.65202921e-01  2.69284843e-01  2.75998174e-01
  2.79400652e-01  2.91718802e-01  2.99686510e-01  3.05438570e-01
  3.08566259e-01  3.10824558e-01  3.19387003e-01  3.24249672e-01
  3.35373102e-01  3.38326339e-01  3.39454945e-01  3.44386331e-01
  3.47521647e-01  3.55688923e-01  3.65681232e-01  3.78944836e-01
  3.85167586e-01  3.94900227e-01  3.98792280e-01  4.11804376e-01
  4.14097477e-01  4.17024811e-01  4.21835106e-01  4.35506908e-01
  4.40523022e-01  4.43365596e-01  4.47213553e-01  4.55851310e-01
  4.62817892e-01  4.66976859e-01  4.73191118e-01  4.76126965e-01
  4.82854202e-01  4.96436577e-01  5.01940113e-01  5.06246853e-01
  5.09579237e-01  5.14309874e-01  5.16410772e-01  5.23957006e-01
  5.33146963e-01  5.41703331e-01  5.47338526e-01  5.49148958e-01
  5.54907377e-01  5.58847779e-01  5.70021607e-01  5.76901867e-01
  5.81786681e-01  5.99323171e-01  6.02957128e-01  6.06461406e-01
  6.32101102e-01  6.39868521e-01  6.46046071e-01  6.50480412e-01
  6.59416238e-01  6.61152635e-01  6.67126972e-01  6.82831337e-01
  6.91481771e-01  7.00667195e-01  7.04601948e-01  7.10502237e-01
  7.13792962e-01  7.22251732e-01  7.28376534e-01  7.32671507e-01
  7.38466706e-01  7.41047649e-01  7.51938359e-01  7.53559093e-01
  7.57284391e-01  7.58813772e-01  7.60850653e-01  7.61481070e-01
  7.65820548e-01  7.67843344e-01  7.69602247e-01  7.74445265e-01
  7.75651112e-01  7.83067247e-01  7.86485632e-01  7.89671104e-01
  7.90640011e-01  7.92140650e-01  7.98357568e-01  8.02563984e-01
  8.03543406e-01  8.13474884e-01  8.17265417e-01  8.19291772e-01
  8.25093827e-01  8.26573859e-01  8.29254305e-01  8.37744966e-01
  8.44940816e-01  8.48214861e-01  8.68057623e-01  8.71265626e-01
  8.77016167e-01  8.81982897e-01  8.85800823e-01  8.89038035e-01
  9.01992387e-01  9.07331795e-01  9.13636853e-01  9.19470386e-01
  9.27933437e-01  9.29562663e-01  9.35204620e-01  9.42836681e-01
  9.48854237e-01  9.53827107e-01  9.61369283e-01  9.67253703e-01
  9.74041082e-01  9.90110496e-01  9.95220915e-01  9.98402947e-01
  1.00193729e+00  1.00350609e+00  1.01192016e+00  1.01803561e+00
  1.02086658e+00  1.03341972e+00  1.03553532e+00  1.05259492e+00
  1.05808774e+00  1.06585692e+00  1.08636540e+00  1.08665931e+00
  1.10210023e+00  1.11350870e+00  1.12131698e+00  1.12525250e+00
  1.13969937e+00  1.14399814e+00  1.15466417e+00  1.18280659e+00
  1.18386286e+00  1.19369246e+00  1.19709242e+00  1.20510663e+00
  1.21778900e+00  1.21972244e+00  1.24151188e+00  1.24905554e+00
  1.26809048e+00  1.27260654e+00  1.28547385e+00  1.28623006e+00
  1.29905196e+00  1.30941145e+00  1.31926323e+00  1.34927947e+00
  1.36244948e+00  1.40248954e+00  1.42282750e+00  1.44500746e+00
  1.46964430e+00  1.50336510e+00  1.51229375e+00  1.57131260e+00
  1.57273813e+00  1.59368751e+00  1.60381650e+00  1.65990040e+00
  1.70875938e+00  1.72802573e+00  1.79747493e+00  1.85543665e+00
  1.86599967e+00  1.90438452e+00  1.96319780e+00  1.99650891e+00
  2.06912731e+00  2.08944885e+00  2.15526473e+00  2.22965842e+00
  2.27667817e+00  2.32298574e+00  2.35736084e+00  2.40139131e+00
  2.45198752e+00  2.46798261e+00  2.50443414e+00  2.53237262e+00
  2.60247930e+00  2.63624141e+00  2.67021354e+00  2.69129988e+00
  2.73048308e+00  2.78039123e+00  2.83268956e+00  2.84168230e+00
  2.85375932e+00  2.87378658e+00  2.90778842e+00  2.96846826e+00
  3.00812381e+00  3.04620788e+00  3.07428122e+00  3.09011292e+00
  3.10861535e+00  3.12902566e+00  3.13587258e+00  3.18528683e+00
  3.19847553e+00  3.21206330e+00  3.23488034e+00  3.29110104e+00
  3.30354146e+00  3.31085828e+00  3.34142993e+00  3.34815329e+00
  3.38176995e+00  3.40050409e+00  3.41092781e+00  3.43980714e+00
  3.46341930e+00  3.47044541e+00  3.52357238e+00  3.53432884e+00
  3.55477558e+00  3.57808810e+00  3.61456496e+00  3.67822755e+00
  3.69405878e+00  3.70406170e+00  3.74782850e+00  3.77795481e+00
  3.79970439e+00  3.85926587e+00  3.86022799e+00  3.89407426e+00
  3.91115962e+00  3.96146969e+00  3.96385014e+00  4.02729405e+00
  4.04346205e+00  4.06030770e+00  4.07674066e+00  4.09377217e+00
  4.15447881e+00  4.24606626e+00  4.27144086e+00  4.28977190e+00
  4.29290560e+00  4.38674925e+00  4.38915065e+00  4.42947350e+00
  4.43585791e+00  4.49792060e+00  4.51661257e+00  4.52001831e+00
  4.65345271e+00  4.66643495e+00  4.68188109e+00  4.69625934e+00
  4.76231598e+00  4.82185531e+00  4.83377110e+00  4.95140960e+00
  5.00971685e+00  5.05727240e+00  5.08275408e+00  5.14555079e+00
  5.15386690e+00  5.32267331e+00  5.34112302e+00  5.39707681e+00
  5.44105214e+00  5.47774186e+00  5.49031858e+00  5.53164314e+00
  5.58029841e+00  5.60727871e+00  5.60731998e+00  5.68814700e+00
  5.74947535e+00  5.75584060e+00  5.85236863e+00  5.87824670e+00
  5.98932075e+00  5.99910277e+00  6.09085506e+00  6.11289088e+00
  6.12306242e+00  6.15124892e+00  6.20465909e+00  6.21505633e+00
  6.28686841e+00  6.40000801e+00  6.45419946e+00  6.45459100e+00
  6.47126048e+00  6.59525916e+00  6.64920103e+00  6.71661705e+00
  6.79357303e+00  6.84798926e+00  6.90865491e+00  6.96891665e+00
  6.98796203e+00  7.04207258e+00  7.09683156e+00  7.18982826e+00
  7.23193239e+00  7.30456094e+00  7.32442009e+00  7.35725860e+00
  7.40076444e+00  7.45615269e+00  7.50901940e+00  7.53486596e+00
  7.72361175e+00  7.77394140e+00  7.90852014e+00  7.98389752e+00
  8.08971083e+00  8.46050916e+00  1.10071057e+01  1.30376166e+01
  1.33117443e+01  1.40130719e+01  1.58700680e+01  1.72664419e+01]
E1 = -1260.395591762886  E_coul = 504.37661685365674
cycle= 3 E= -385.245427434129  delta_E= -0.0525  |g|= 0.0838  |ddm|= 0.278
    CPU time for cycle= 3     25.44 sec, wall time      0.83 sec
diis-norm(errvec)=0.264107
diis-c [-0.04344434 -0.0663264  -0.01459569  1.08092209]
  HOMO = -0.131853850522645  LUMO = -0.00847767155043641
  mo_energy =
[-2.06530607e+01 -2.06520741e+01 -2.05446886e+01 -1.14383668e+01
 -1.13002473e+01 -1.12992041e+01 -2.46794225e+00 -2.46544352e+00
 -2.44808647e+00 -2.44801520e+00 -2.43606826e+00 -2.41577726e+00
 -1.63326978e+00 -1.47127129e+00 -1.46901893e+00 -1.12569182e+00
 -9.81136132e-01 -8.94913016e-01 -8.27808250e-01 -7.97550954e-01
 -7.44113670e-01 -7.10882264e-01 -6.77046001e-01 -6.76168101e-01
 -6.10867885e-01 -5.80783601e-01 -5.28334125e-01 -5.17189903e-01
 -5.02405128e-01 -2.05663158e-01 -1.41176581e-01 -1.31853851e-01
 -8.47767155e-03  1.11732648e-02  2.16735932e-02  2.75235358e-02
  3.28938244e-02  3.36316904e-02  4.04327736e-02  4.48583439e-02
  5.35467069e-02  5.45283113e-02  5.78370333e-02  6.04374117e-02
  6.45287350e-02  6.98401470e-02  7.91025304e-02  8.05698577e-02
  8.27490224e-02  8.33298589e-02  8.86079303e-02  9.55858647e-02
  9.65639454e-02  1.10200210e-01  1.13334521e-01  1.19962991e-01
  1.24955154e-01  1.36061731e-01  1.40718590e-01  1.44336023e-01
  1.47585001e-01  1.50732509e-01  1.55738676e-01  1.59654896e-01
  1.63659579e-01  1.68992788e-01  1.70359519e-01  1.77591962e-01
  1.83084552e-01  1.96829983e-01  1.98749529e-01  2.05815282e-01
  2.15873744e-01  2.18637170e-01  2.21144465e-01  2.25014718e-01
  2.27777003e-01  2.32682490e-01  2.34299065e-01  2.36736712e-01
  2.45458137e-01  2.48996680e-01  2.55493600e-01  2.61752582e-01
  2.62335372e-01  2.65876305e-01  2.70158664e-01  2.77617015e-01
  2.80275362e-01  2.92535875e-01  3.00219478e-01  3.06464867e-01
  3.10126953e-01  3.13793017e-01  3.21420139e-01  3.25172561e-01
  3.37403807e-01  3.39639670e-01  3.40674306e-01  3.45995754e-01
  3.48510902e-01  3.56753895e-01  3.66281363e-01  3.80322483e-01
  3.86147972e-01  3.96468334e-01  4.00043891e-01  4.12751269e-01
  4.15264137e-01  4.17819408e-01  4.23139228e-01  4.37351283e-01
  4.43754200e-01  4.45417333e-01  4.49459331e-01  4.56624583e-01
  4.63250010e-01  4.68485062e-01  4.74036255e-01  4.77545999e-01
  4.83472930e-01  4.97483823e-01  5.03584615e-01  5.07709004e-01
  5.11262507e-01  5.16584597e-01  5.18709566e-01  5.25726858e-01
  5.36070400e-01  5.44331425e-01  5.50274825e-01  5.52869825e-01
  5.57213520e-01  5.60819606e-01  5.72275302e-01  5.78826150e-01
  5.82402879e-01  6.01088851e-01  6.04500979e-01  6.08242238e-01
  6.36056719e-01  6.44328797e-01  6.48236099e-01  6.55294144e-01
  6.62428252e-01  6.64666685e-01  6.70221289e-01  6.84896336e-01
  6.94568206e-01  7.03730625e-01  7.06717232e-01  7.13641784e-01
  7.16113961e-01  7.24510690e-01  7.30430553e-01  7.34302275e-01
  7.38621379e-01  7.42506605e-01  7.53520258e-01  7.54976526e-01
  7.58924747e-01  7.60128918e-01  7.61943320e-01  7.63769993e-01
  7.67614625e-01  7.68888243e-01  7.70413373e-01  7.75606124e-01
  7.76472481e-01  7.84349182e-01  7.88211719e-01  7.90346865e-01
  7.92591278e-01  7.93622184e-01  7.99746292e-01  8.04200725e-01
  8.05178633e-01  8.14288623e-01  8.18413830e-01  8.20676622e-01
  8.25709189e-01  8.27983958e-01  8.30618776e-01  8.39399136e-01
  8.46611367e-01  8.49148540e-01  8.69447810e-01  8.73182054e-01
  8.78133673e-01  8.83884303e-01  8.88480434e-01  8.90778738e-01
  9.02517439e-01  9.08810748e-01  9.15364045e-01  9.21274710e-01
  9.29396092e-01  9.30698354e-01  9.36269397e-01  9.44466201e-01
  9.50203627e-01  9.55069226e-01  9.62448481e-01  9.69327136e-01
  9.75909238e-01  9.91283625e-01  9.96914342e-01  1.00032255e+00
  1.00422365e+00  1.00501893e+00  1.01585659e+00  1.01949756e+00
  1.02481064e+00  1.03598105e+00  1.03727113e+00  1.05465581e+00
  1.06061077e+00  1.06863310e+00  1.08889424e+00  1.09018485e+00
  1.10430148e+00  1.11531984e+00  1.12437542e+00  1.12874697e+00
  1.14208053e+00  1.14673323e+00  1.15707969e+00  1.18568251e+00
  1.18753498e+00  1.19790487e+00  1.20018796e+00  1.20860352e+00
  1.22115810e+00  1.22381544e+00  1.24585742e+00  1.25324368e+00
  1.27182174e+00  1.27781437e+00  1.28832962e+00  1.29183009e+00
  1.30262544e+00  1.31495175e+00  1.32223816e+00  1.35163478e+00
  1.36827551e+00  1.40649135e+00  1.42689225e+00  1.44929114e+00
  1.47419609e+00  1.50741631e+00  1.51536711e+00  1.57537845e+00
  1.57664730e+00  1.59920579e+00  1.60583163e+00  1.66387101e+00
  1.71306580e+00  1.73590720e+00  1.80523538e+00  1.85947392e+00
  1.87108689e+00  1.91061436e+00  1.97173621e+00  1.99806586e+00
  2.07089214e+00  2.09950261e+00  2.15876874e+00  2.23560216e+00
  2.27468290e+00  2.32614962e+00  2.36087536e+00  2.40765025e+00
  2.45437983e+00  2.47128124e+00  2.50924273e+00  2.53503151e+00
  2.60628518e+00  2.64264352e+00  2.67591432e+00  2.69811678e+00
  2.73754006e+00  2.78746634e+00  2.83681356e+00  2.84305108e+00
  2.86023467e+00  2.88063104e+00  2.91158484e+00  2.97356479e+00
  3.01394484e+00  3.05278116e+00  3.07825924e+00  3.09202202e+00
  3.11080422e+00  3.13375857e+00  3.13995401e+00  3.19177661e+00
  3.20373078e+00  3.21710784e+00  3.24062497e+00  3.29823218e+00
  3.30806010e+00  3.31824328e+00  3.34619265e+00  3.35424656e+00
  3.38549179e+00  3.40349689e+00  3.41651848e+00  3.44726728e+00
  3.46979038e+00  3.47739503e+00  3.52985780e+00  3.53891314e+00
  3.55885195e+00  3.58097397e+00  3.61919398e+00  3.68303321e+00
  3.70105147e+00  3.71313745e+00  3.75939802e+00  3.78309229e+00
  3.80475727e+00  3.86567784e+00  3.86913455e+00  3.90282369e+00
  3.91857740e+00  3.96692409e+00  3.97284861e+00  4.03558117e+00
  4.05258516e+00  4.06772740e+00  4.08431128e+00  4.10063292e+00
  4.16335868e+00  4.25449330e+00  4.28129783e+00  4.29466575e+00
  4.30106458e+00  4.39608691e+00  4.39703127e+00  4.43708037e+00
  4.44635154e+00  4.50530618e+00  4.52517401e+00  4.52909216e+00
  4.66189217e+00  4.68115913e+00  4.69117863e+00  4.72197718e+00
  4.78370324e+00  4.83099931e+00  4.83851600e+00  4.95762418e+00
  5.01751597e+00  5.06189474e+00  5.09067130e+00  5.15287641e+00
  5.16636567e+00  5.32822143e+00  5.34591198e+00  5.40725141e+00
  5.44986229e+00  5.49036758e+00  5.49725023e+00  5.54082096e+00
  5.60437246e+00  5.62060134e+00  5.63097569e+00  5.69893111e+00
  5.75578695e+00  5.76368768e+00  5.85883739e+00  5.88727362e+00
  5.99202667e+00  6.01053952e+00  6.09665677e+00  6.12846484e+00
  6.13087303e+00  6.15482647e+00  6.20879641e+00  6.22146237e+00
  6.29292249e+00  6.40168369e+00  6.45612663e+00  6.46032727e+00
  6.47297505e+00  6.60050684e+00  6.65172743e+00  6.72858763e+00
  6.81137740e+00  6.85652498e+00  6.91785281e+00  6.99074363e+00
  7.01854779e+00  7.05975615e+00  7.11559055e+00  7.19537366e+00
  7.23351181e+00  7.30513732e+00  7.31886176e+00  7.35624329e+00
  7.42524458e+00  7.45826590e+00  7.52227344e+00  7.53090367e+00
  7.73917871e+00  7.76932472e+00  7.92485140e+00  7.98946348e+00
  8.08650850e+00  8.47525248e+00  1.10115376e+01  1.30494952e+01
  1.33058701e+01  1.40224754e+01  1.58772847e+01  1.72919281e+01]
E1 = -1260.325616534842  E_coul = 504.3042355553996
cycle= 4 E= -385.247833504342  delta_E= -0.00241  |g|= 0.0375  |ddm|= 0.155
    CPU time for cycle= 4     25.48 sec, wall time      0.81 sec
diis-norm(errvec)=0.109273
diis-c [-0.00441519 -0.03732008 -0.04216524  0.31553247  0.76395285]
  HOMO = -0.132088359063608  LUMO = -0.00783212835438033
  mo_energy =
[-2.06384728e+01 -2.06379976e+01 -2.05730388e+01 -1.14445462e+01
 -1.13066524e+01 -1.13056096e+01 -2.46803631e+00 -2.46527743e+00
 -2.44764997e+00 -2.44750836e+00 -2.43647945e+00 -2.41638690e+00
 -1.63227096e+00 -1.47985632e+00 -1.46527926e+00 -1.12693877e+00
 -9.80587156e-01 -8.92894999e-01 -8.27473168e-01 -8.00413211e-01
 -7.45211820e-01 -7.16344270e-01 -6.80181688e-01 -6.75029932e-01
 -6.06602448e-01 -5.81682947e-01 -5.35350052e-01 -5.21265200e-01
 -5.01360244e-01 -2.05268898e-01 -1.41070376e-01 -1.32088359e-01
 -7.83212835e-03  1.14694567e-02  2.19211861e-02  2.74291122e-02
  3.28119101e-02  3.35983689e-02  4.05708702e-02  4.48818474e-02
  5.34756041e-02  5.47031664e-02  5.79588637e-02  6.05881253e-02
  6.45973907e-02  6.99086697e-02  7.90448152e-02  8.07328529e-02
  8.26779796e-02  8.33595242e-02  8.87291545e-02  9.57562099e-02
  9.65428631e-02  1.10234305e-01  1.13484399e-01  1.19943716e-01
  1.25160199e-01  1.36299033e-01  1.40961908e-01  1.44312299e-01
  1.47868074e-01  1.50957785e-01  1.55855605e-01  1.59853600e-01
  1.63738507e-01  1.69121657e-01  1.70643404e-01  1.77663262e-01
  1.83255031e-01  1.96949297e-01  1.98882372e-01  2.05676533e-01
  2.15119805e-01  2.18274939e-01  2.21243838e-01  2.25225393e-01
  2.27886487e-01  2.32809751e-01  2.34394286e-01  2.36838679e-01
  2.45385050e-01  2.49037752e-01  2.55522435e-01  2.61851653e-01
  2.62388581e-01  2.65934986e-01  2.70242469e-01  2.77599056e-01
  2.80339687e-01  2.92853475e-01  3.00317020e-01  3.06572215e-01
  3.10186393e-01  3.13932051e-01  3.21398470e-01  3.25346145e-01
  3.37545373e-01  3.39768499e-01  3.40771508e-01  3.46117814e-01
  3.48538737e-01  3.56516141e-01  3.66437650e-01  3.80265443e-01
  3.86028169e-01  3.96393531e-01  3.99918947e-01  4.12835598e-01
  4.15174192e-01  4.17915209e-01  4.23195010e-01  4.37648286e-01
  4.43664189e-01  4.45241238e-01  4.49210510e-01  4.56664663e-01
  4.63447984e-01  4.68388212e-01  4.74145791e-01  4.77653933e-01
  4.83709391e-01  4.97627871e-01  5.03536273e-01  5.07768686e-01
  5.11242016e-01  5.16589013e-01  5.18569372e-01  5.25700350e-01
  5.35742861e-01  5.44152298e-01  5.49984460e-01  5.52329031e-01
  5.56950355e-01  5.60833292e-01  5.72000921e-01  5.78744023e-01
  5.82558363e-01  6.00954425e-01  6.04538854e-01  6.08160485e-01
  6.35798464e-01  6.44054761e-01  6.48421402e-01  6.55130113e-01
  6.62179873e-01  6.64484120e-01  6.70226946e-01  6.84896783e-01
  6.94620396e-01  7.03929362e-01  7.07013960e-01  7.14061475e-01
  7.16282348e-01  7.24870915e-01  7.30709032e-01  7.34467486e-01
  7.38821289e-01  7.42700727e-01  7.53778401e-01  7.55346303e-01
  7.59346156e-01  7.60284687e-01  7.62193888e-01  7.64003836e-01
  7.67905969e-01  7.69153213e-01  7.70812908e-01  7.75926365e-01
  7.76699654e-01  7.84566327e-01  7.88513849e-01  7.90595289e-01
  7.92644577e-01  7.93727035e-01  8.00039189e-01  8.04382253e-01
  8.05447752e-01  8.14474551e-01  8.18553533e-01  8.20792568e-01
  8.25875286e-01  8.27994944e-01  8.30818958e-01  8.39382159e-01
  8.46642758e-01  8.49326769e-01  8.69511627e-01  8.73068982e-01
  8.78128996e-01  8.83760490e-01  8.87955328e-01  8.90839702e-01
  9.02473220e-01  9.08798091e-01  9.15348541e-01  9.21307164e-01
  9.29508131e-01  9.30778261e-01  9.36307098e-01  9.44397518e-01
  9.50197423e-01  9.55096396e-01  9.62504775e-01  9.69096115e-01
  9.75686544e-01  9.91430442e-01  9.96985212e-01  1.00031127e+00
  1.00423459e+00  1.00500586e+00  1.01546658e+00  1.01943767e+00
  1.02483901e+00  1.03598035e+00  1.03721597e+00  1.05465847e+00
  1.06046422e+00  1.06823638e+00  1.08860644e+00  1.08968883e+00
  1.10427446e+00  1.11541082e+00  1.12411841e+00  1.12816613e+00
  1.14231257e+00  1.14656479e+00  1.15718088e+00  1.18549367e+00
  1.18717852e+00  1.19746646e+00  1.20025230e+00  1.20820849e+00
  1.22085790e+00  1.22347799e+00  1.24480520e+00  1.25280205e+00
  1.27161049e+00  1.27721845e+00  1.28838409e+00  1.29098519e+00
  1.30233872e+00  1.31366179e+00  1.32183826e+00  1.35152284e+00
  1.36677157e+00  1.40595797e+00  1.42601617e+00  1.44893110e+00
  1.47298482e+00  1.50692210e+00  1.51559190e+00  1.57444866e+00
  1.57614170e+00  1.59727283e+00  1.60662176e+00  1.66366881e+00
  1.71244768e+00  1.73349499e+00  1.80449471e+00  1.85809126e+00
  1.87057174e+00  1.90907361e+00  1.96895031e+00  1.99855774e+00
  2.07132906e+00  2.09606361e+00  2.15852612e+00  2.23434961e+00
  2.27672258e+00  2.32611435e+00  2.36050691e+00  2.40598334e+00
  2.45327079e+00  2.47100194e+00  2.50814331e+00  2.53462896e+00
  2.60595595e+00  2.64060817e+00  2.67431620e+00  2.69613023e+00
  2.73533753e+00  2.78583339e+00  2.83518278e+00  2.84321551e+00
  2.85819592e+00  2.87879036e+00  2.91060904e+00  2.97186196e+00
  3.01140976e+00  3.05090865e+00  3.07708132e+00  3.09120038e+00
  3.11024037e+00  3.13249770e+00  3.13873929e+00  3.19061468e+00
  3.20299016e+00  3.21616807e+00  3.23880941e+00  3.29676258e+00
  3.30686299e+00  3.31712226e+00  3.34412843e+00  3.35265460e+00
  3.38380672e+00  3.40319688e+00  3.41507294e+00  3.44546348e+00
  3.46834241e+00  3.47553544e+00  3.52957944e+00  3.53835990e+00
  3.55844962e+00  3.58040251e+00  3.61845370e+00  3.68174597e+00
  3.69995290e+00  3.71082208e+00  3.75601667e+00  3.78239105e+00
  3.80368339e+00  3.86489913e+00  3.86888246e+00  3.90238774e+00
  3.91675111e+00  3.96671637e+00  3.97212369e+00  4.03497554e+00
  4.05169590e+00  4.06710279e+00  4.08329465e+00  4.10043950e+00
  4.16231015e+00  4.25440650e+00  4.28038824e+00  4.29621447e+00
  4.30093916e+00  4.39489880e+00  4.39733770e+00  4.43589249e+00
  4.44548096e+00  4.50561752e+00  4.52475237e+00  4.52921576e+00
  4.66060469e+00  4.67860383e+00  4.68876960e+00  4.71297442e+00
  4.77805646e+00  4.82946750e+00  4.83983318e+00  4.95668408e+00
  5.01761469e+00  5.06257910e+00  5.09040843e+00  5.15247972e+00
  5.16408284e+00  5.32867822e+00  5.34643662e+00  5.40617012e+00
  5.44940987e+00  5.48798249e+00  5.49735780e+00  5.54014384e+00
  5.59614139e+00  5.61802632e+00  5.62278244e+00  5.69767546e+00
  5.75598289e+00  5.76295866e+00  5.85925797e+00  5.88644682e+00
  5.99384848e+00  6.00841439e+00  6.09734955e+00  6.12445779e+00
  6.13005505e+00  6.15577007e+00  6.21003071e+00  6.22114547e+00
  6.29323220e+00  6.40374853e+00  6.45815048e+00  6.46090107e+00
  6.47505831e+00  6.60135230e+00  6.65321720e+00  6.72627725e+00
  6.80752797e+00  6.85596797e+00  6.91734399e+00  6.98369189e+00
  7.00849257e+00  7.05493928e+00  7.11053226e+00  7.19669109e+00
  7.23623379e+00  7.30863881e+00  7.32531488e+00  7.36059820e+00
  7.41858813e+00  7.46014016e+00  7.51980255e+00  7.53652171e+00
  7.73679879e+00  7.77499317e+00  7.92087126e+00  7.99081041e+00
  8.09147892e+00  8.47129617e+00  1.10120895e+01  1.30460285e+01
  1.33127058e+01  1.40196569e+01  1.58733591e+01  1.72818695e+01]
E1 = -1260.3578911035481  E_coul = 504.3361036966466
cycle= 5 E= -385.248239931801  delta_E= -0.000406  |g|= 0.00815  |ddm|= 0.0531
    CPU time for cycle= 5     25.10 sec, wall time      0.79 sec
diis-norm(errvec)=0.0314991
diis-c [-6.33735670e-04  8.35682358e-03  1.89562207e-03 -1.27463387e-01
 -7.08369476e-02  1.18804789e+00]
  HOMO = -0.132118488263426  LUMO = -0.00728352285674539
  mo_energy =
[-2.06432191e+01 -2.06426866e+01 -2.05723712e+01 -1.14439651e+01
 -1.13065424e+01 -1.13054988e+01 -2.46862933e+00 -2.46543326e+00
 -2.44665573e+00 -2.44654978e+00 -2.43670400e+00 -2.41626045e+00
 -1.63300197e+00 -1.47946232e+00 -1.46643491e+00 -1.12697723e+00
 -9.81127577e-01 -8.93620635e-01 -8.27866096e-01 -8.00480376e-01
 -7.45531848e-01 -7.16412424e-01 -6.79906750e-01 -6.75848837e-01
 -6.07893674e-01 -5.82207652e-01 -5.35396965e-01 -5.21069638e-01
 -5.02228955e-01 -2.04548406e-01 -1.40839286e-01 -1.32118488e-01
 -7.28352286e-03  1.18349396e-02  2.22087662e-02  2.74717639e-02
  3.27774359e-02  3.35637734e-02  4.06668259e-02  4.49555765e-02
  5.34840802e-02  5.48257784e-02  5.80948656e-02  6.06854106e-02
  6.46614220e-02  7.00596451e-02  7.90604593e-02  8.09591850e-02
  8.26664812e-02  8.33946727e-02  8.88225082e-02  9.59485582e-02
  9.65878442e-02  1.10390316e-01  1.13658745e-01  1.20072273e-01
  1.25345935e-01  1.36467122e-01  1.41194530e-01  1.44408434e-01
  1.48017216e-01  1.51264632e-01  1.56043411e-01  1.60031313e-01
  1.63857556e-01  1.69261264e-01  1.70889194e-01  1.77847567e-01
  1.83350981e-01  1.97095761e-01  1.99015378e-01  2.05659449e-01
  2.15215462e-01  2.18364218e-01  2.21444101e-01  2.25406861e-01
  2.28028259e-01  2.33013194e-01  2.34488423e-01  2.36974892e-01
  2.45439850e-01  2.49270712e-01  2.55743661e-01  2.62105555e-01
  2.62634060e-01  2.66071390e-01  2.70453554e-01  2.77796892e-01
  2.80493101e-01  2.93059638e-01  3.00374851e-01  3.06776343e-01
  3.10326775e-01  3.13862591e-01  3.21401233e-01  3.25579909e-01
  3.37692847e-01  3.39882914e-01  3.40886426e-01  3.46268401e-01
  3.48808159e-01  3.56489711e-01  3.66628022e-01  3.80436723e-01
  3.86082466e-01  3.96606580e-01  4.00033566e-01  4.13013008e-01
  4.15418648e-01  4.18138505e-01  4.23452278e-01  4.37723403e-01
  4.44130710e-01  4.45562066e-01  4.49514902e-01  4.56742871e-01
  4.63508279e-01  4.68512418e-01  4.74328886e-01  4.77945999e-01
  4.83839838e-01  4.97874308e-01  5.03777435e-01  5.07955308e-01
  5.11501212e-01  5.16679929e-01  5.18670205e-01  5.25850048e-01
  5.35728580e-01  5.44402783e-01  5.50074365e-01  5.52291731e-01
  5.57101424e-01  5.60855200e-01  5.72156090e-01  5.78981427e-01
  5.82715981e-01  6.01101502e-01  6.04772477e-01  6.08349320e-01
  6.35854894e-01  6.44083074e-01  6.48749914e-01  6.55262871e-01
  6.62319713e-01  6.64470679e-01  6.70321255e-01  6.85139035e-01
  6.94898639e-01  7.03949069e-01  7.07158551e-01  7.14606073e-01
  7.16635295e-01  7.25098037e-01  7.31056289e-01  7.34742112e-01
  7.38814920e-01  7.42904785e-01  7.54028671e-01  7.55510955e-01
  7.59707352e-01  7.60436908e-01  7.62311479e-01  7.64333689e-01
  7.68156523e-01  7.69220756e-01  7.71158365e-01  7.75935148e-01
  7.76922519e-01  7.84777993e-01  7.88884308e-01  7.90854675e-01
  7.92949770e-01  7.93865571e-01  8.00244719e-01  8.04617854e-01
  8.05810157e-01  8.14691704e-01  8.18875798e-01  8.21147833e-01
  8.25986030e-01  8.28222169e-01  8.31109678e-01  8.39401051e-01
  8.46815377e-01  8.49512832e-01  8.69720543e-01  8.73286803e-01
  8.78367120e-01  8.83901704e-01  8.88017014e-01  8.90949531e-01
  9.02524218e-01  9.09009607e-01  9.15511000e-01  9.21543841e-01
  9.29751310e-01  9.30916124e-01  9.36434115e-01  9.44534132e-01
  9.50377516e-01  9.55187444e-01  9.62599680e-01  9.69288028e-01
  9.75782683e-01  9.91604056e-01  9.97249220e-01  1.00059870e+00
  1.00457623e+00  1.00517616e+00  1.01564769e+00  1.01960376e+00
  1.02478072e+00  1.03625070e+00  1.03741415e+00  1.05486908e+00
  1.06056902e+00  1.06839489e+00  1.08879686e+00  1.08992677e+00
  1.10441215e+00  1.11550758e+00  1.12447161e+00  1.12840871e+00
  1.14270822e+00  1.14685279e+00  1.15754096e+00  1.18579745e+00
  1.18752917e+00  1.19779998e+00  1.20068623e+00  1.20840685e+00
  1.22123989e+00  1.22332199e+00  1.24487088e+00  1.25295593e+00
  1.27199488e+00  1.27738189e+00  1.28848445e+00  1.29097756e+00
  1.30240809e+00  1.31372174e+00  1.32197629e+00  1.35163437e+00
  1.36700663e+00  1.40594912e+00  1.42588557e+00  1.44891001e+00
  1.47314784e+00  1.50680479e+00  1.51545476e+00  1.57454531e+00
  1.57612975e+00  1.59742930e+00  1.60637454e+00  1.66348407e+00
  1.71238575e+00  1.73385379e+00  1.80437938e+00  1.85804673e+00
  1.87036399e+00  1.90902052e+00  1.96902127e+00  1.99823455e+00
  2.07096432e+00  2.09633308e+00  2.15834598e+00  2.23425068e+00
  2.27618193e+00  2.32577721e+00  2.36017122e+00  2.40596340e+00
  2.45327957e+00  2.47073728e+00  2.50808236e+00  2.53437745e+00
  2.60572243e+00  2.64072813e+00  2.67432701e+00  2.69610781e+00
  2.73530307e+00  2.78575936e+00  2.83523459e+00  2.84294006e+00
  2.85819068e+00  2.87867443e+00  2.91073403e+00  2.97178096e+00
  3.01139708e+00  3.05066208e+00  3.07698803e+00  3.09099387e+00
  3.11023152e+00  3.13247892e+00  3.13861218e+00  3.19050258e+00
  3.20312175e+00  3.21632557e+00  3.23874865e+00  3.29641713e+00
  3.30673409e+00  3.31692693e+00  3.34418072e+00  3.35250817e+00
  3.38366238e+00  3.40350781e+00  3.41491813e+00  3.44523890e+00
  3.46822844e+00  3.47546969e+00  3.52927752e+00  3.53805570e+00
  3.55804474e+00  3.58033897e+00  3.61812384e+00  3.68151824e+00
  3.69951477e+00  3.71081182e+00  3.75599836e+00  3.78192655e+00
  3.80346209e+00  3.86460937e+00  3.86873458e+00  3.90219930e+00
  3.91669477e+00  3.96627770e+00  3.97199156e+00  4.03487310e+00
  4.05149600e+00  4.06694604e+00  4.08307453e+00  4.10028743e+00
  4.16202080e+00  4.25416973e+00  4.28026695e+00  4.29561118e+00
  4.30077101e+00  4.39472613e+00  4.39698914e+00  4.43570339e+00
  4.44528153e+00  4.50519439e+00  4.52455488e+00  4.52912114e+00
  4.66037419e+00  4.67862443e+00  4.68855230e+00  4.71327747e+00
  4.77798354e+00  4.82889184e+00  4.83918688e+00  4.95625360e+00
  5.01715190e+00  5.06202011e+00  5.08991019e+00  5.15223082e+00
  5.16361742e+00  5.32810854e+00  5.34594458e+00  5.40592863e+00
  5.44905806e+00  5.48770623e+00  5.49677550e+00  5.53991841e+00
  5.59654368e+00  5.61786227e+00  5.62312766e+00  5.69733493e+00
  5.75544551e+00  5.76269697e+00  5.85869753e+00  5.88586817e+00
  5.99297298e+00  6.00813844e+00  6.09659492e+00  6.12431045e+00
  6.12977659e+00  6.15512245e+00  6.20908109e+00  6.22050806e+00
  6.29268045e+00  6.40264878e+00  6.45699451e+00  6.46020653e+00
  6.47403110e+00  6.60040698e+00  6.65214847e+00  6.72560711e+00
  6.80693309e+00  6.85502495e+00  6.91633538e+00  6.98371590e+00
  7.00872738e+00  7.05446928e+00  7.11018339e+00  7.19557907e+00
  7.23490946e+00  7.30720562e+00  7.32357252e+00  7.35911109e+00
  7.41875138e+00  7.45879187e+00  7.51929237e+00  7.53483957e+00
  7.73614761e+00  7.77328735e+00  7.92033859e+00  7.98962917e+00
  8.08986721e+00  8.47091988e+00  1.10111086e+01  1.30455512e+01
  1.33103741e+01  1.40191503e+01  1.58733455e+01  1.72821070e+01]
E1 = -1260.3772648166012  E_coul = 504.35536386746367
cycle= 6 E= -385.248353474037  delta_E= -0.000114  |g|= 0.00357  |ddm|= 0.0478
    CPU time for cycle= 6     25.24 sec, wall time      0.80 sec
diis-norm(errvec)=0.0147509
diis-c [-1.31664130e-04  6.08026920e-03  6.99790483e-03 -4.06020645e-02
 -1.28745879e-01 -2.26949822e-02  1.17896475e+00]
  HOMO = -0.132337390693833  LUMO = -0.00719403734348462
  mo_energy =
[-2.06408830e+01 -2.06403480e+01 -2.05716752e+01 -1.14432152e+01
 -1.13058915e+01 -1.13048472e+01 -2.46952426e+00 -2.46602670e+00
 -2.44599335e+00 -2.44594535e+00 -2.43678062e+00 -2.41713175e+00
 -1.63214010e+00 -1.47910298e+00 -1.46542122e+00 -1.12651752e+00
 -9.80521139e-01 -8.92849273e-01 -8.27333625e-01 -8.00176039e-01
 -7.45092895e-01 -7.16157217e-01 -6.79593659e-01 -6.75322591e-01
 -6.06971269e-01 -5.81718824e-01 -5.35350948e-01 -5.20620726e-01
 -5.01742401e-01 -2.04358449e-01 -1.41001125e-01 -1.32337391e-01
 -7.19403734e-03  1.19730217e-02  2.22698991e-02  2.74646557e-02
  3.27099950e-02  3.34563207e-02  4.06020968e-02  4.49546278e-02
  5.35078880e-02  5.48026973e-02  5.81261885e-02  6.06646387e-02
  6.46223254e-02  7.01057521e-02  7.90867797e-02  8.10365892e-02
  8.26986327e-02  8.33825558e-02  8.87431199e-02  9.59612317e-02
  9.65151334e-02  1.10427326e-01  1.13597852e-01  1.20131381e-01
  1.25293506e-01  1.36437576e-01  1.41158918e-01  1.44416267e-01
  1.47877158e-01  1.51312001e-01  1.56079503e-01  1.59866028e-01
  1.63862451e-01  1.69335992e-01  1.70859934e-01  1.77874737e-01
  1.83382605e-01  1.97126653e-01  1.99088493e-01  2.05698448e-01
  2.15396797e-01  2.18376079e-01  2.21358966e-01  2.25364215e-01
  2.28018395e-01  2.33016794e-01  2.34586973e-01  2.36998119e-01
  2.45447035e-01  2.49277544e-01  2.55780288e-01  2.62025926e-01
  2.62552210e-01  2.65952841e-01  2.70435998e-01  2.77766052e-01
  2.80484861e-01  2.92989671e-01  3.00238378e-01  3.06854342e-01
  3.10376240e-01  3.13961754e-01  3.21468559e-01  3.25591535e-01
  3.37633178e-01  3.39854501e-01  3.40906910e-01  3.46312084e-01
  3.48916808e-01  3.56398904e-01  3.66584872e-01  3.80472372e-01
  3.86047213e-01  3.96612867e-01  4.00015640e-01  4.12835288e-01
  4.15499327e-01  4.18090462e-01  4.23417350e-01  4.37865829e-01
  4.44090218e-01  4.45408114e-01  4.49405754e-01  4.56628812e-01
  4.63433841e-01  4.68567883e-01  4.74290937e-01  4.78057331e-01
  4.83594519e-01  4.97910465e-01  5.03860624e-01  5.07923944e-01
  5.11596756e-01  5.16822102e-01  5.18711860e-01  5.25856662e-01
  5.35830264e-01  5.44526834e-01  5.50206070e-01  5.52477647e-01
  5.56894524e-01  5.60944872e-01  5.72180963e-01  5.79038692e-01
  5.82602981e-01  6.00899292e-01  6.04581902e-01  6.08265821e-01
  6.36051664e-01  6.44177549e-01  6.48697304e-01  6.55342271e-01
  6.62436980e-01  6.64549790e-01  6.70431729e-01  6.85104298e-01
  6.95026460e-01  7.04163655e-01  7.07278486e-01  7.14695774e-01
  7.16771741e-01  7.25281187e-01  7.31226469e-01  7.34686133e-01
  7.38456329e-01  7.42794274e-01  7.54023075e-01  7.55332776e-01
  7.59674701e-01  7.60352240e-01  7.62066146e-01  7.64400148e-01
  7.68137529e-01  7.69020661e-01  7.71090931e-01  7.75793690e-01
  7.76800401e-01  7.84671514e-01  7.88928665e-01  7.90823452e-01
  7.92919190e-01  7.93904979e-01  8.00196491e-01  8.04551424e-01
  8.05850733e-01  8.14646721e-01  8.18914168e-01  8.21131251e-01
  8.25839452e-01  8.28215201e-01  8.31183071e-01  8.39337484e-01
  8.46815644e-01  8.49492718e-01  8.69830824e-01  8.73370816e-01
  8.78419709e-01  8.83888231e-01  8.88009067e-01  8.90987191e-01
  9.02349169e-01  9.08956185e-01  9.15579625e-01  9.21451561e-01
  9.29725249e-01  9.30975260e-01  9.36439532e-01  9.44528867e-01
  9.50371426e-01  9.55162312e-01  9.62530774e-01  9.69250880e-01
  9.75830277e-01  9.91509777e-01  9.97250318e-01  1.00063189e+00
  1.00454083e+00  1.00506658e+00  1.01559830e+00  1.01950951e+00
  1.02491387e+00  1.03628799e+00  1.03735993e+00  1.05485206e+00
  1.06064307e+00  1.06847238e+00  1.08881340e+00  1.08998659e+00
  1.10449202e+00  1.11548108e+00  1.12452567e+00  1.12833926e+00
  1.14289040e+00  1.14681213e+00  1.15763443e+00  1.18556530e+00
  1.18743056e+00  1.19776220e+00  1.20085926e+00  1.20842899e+00
  1.22117603e+00  1.22353568e+00  1.24505254e+00  1.25300328e+00
  1.27198076e+00  1.27744361e+00  1.28860841e+00  1.29113847e+00
  1.30256298e+00  1.31388686e+00  1.32206112e+00  1.35172041e+00
  1.36710295e+00  1.40611063e+00  1.42619644e+00  1.44907659e+00
  1.47319322e+00  1.50706915e+00  1.51566433e+00  1.57468362e+00
  1.57633256e+00  1.59752371e+00  1.60666576e+00  1.66376749e+00
  1.71256592e+00  1.73371871e+00  1.80456823e+00  1.85827716e+00
  1.87067872e+00  1.90928513e+00  1.96923602e+00  1.99869480e+00
  2.07141381e+00  2.09642946e+00  2.15869759e+00  2.23457190e+00
  2.27675948e+00  2.32618696e+00  2.36060846e+00  2.40624460e+00
  2.45366517e+00  2.47114416e+00  2.50839460e+00  2.53481101e+00
  2.60609013e+00  2.64097758e+00  2.67464866e+00  2.69637011e+00
  2.73560716e+00  2.78599119e+00  2.83557757e+00  2.84342464e+00
  2.85847287e+00  2.87898729e+00  2.91076180e+00  2.97211241e+00
  3.01173096e+00  3.05101185e+00  3.07707095e+00  3.09079992e+00
  3.11014165e+00  3.13274117e+00  3.13884494e+00  3.19082823e+00
  3.20357073e+00  3.21678376e+00  3.23910398e+00  3.29677740e+00
  3.30715657e+00  3.31722141e+00  3.34455266e+00  3.35287412e+00
  3.38412715e+00  3.40362047e+00  3.41528560e+00  3.44560330e+00
  3.46852616e+00  3.47579620e+00  3.52953727e+00  3.53847210e+00
  3.55857479e+00  3.58011571e+00  3.61852934e+00  3.68194035e+00
  3.70000483e+00  3.71105723e+00  3.75632362e+00  3.78240445e+00
  3.80388492e+00  3.86498807e+00  3.86892425e+00  3.90243226e+00
  3.91703132e+00  3.96672310e+00  3.97220756e+00  4.03508606e+00
  4.05176596e+00  4.06720853e+00  4.08340909e+00  4.10054861e+00
  4.16237453e+00  4.25444262e+00  4.28046004e+00  4.29607300e+00
  4.30102635e+00  4.39502037e+00  4.39732418e+00  4.43606419e+00
  4.44552224e+00  4.50555130e+00  4.52480477e+00  4.52927886e+00
  4.66071999e+00  4.67879838e+00  4.68898483e+00  4.71349802e+00
  4.77832019e+00  4.82941813e+00  4.83970343e+00  4.95673255e+00
  5.01753618e+00  5.06253312e+00  5.09036156e+00  5.15258868e+00
  5.16412068e+00  5.32867700e+00  5.34646580e+00  5.40619473e+00
  5.44939412e+00  5.48808673e+00  5.49727684e+00  5.54022419e+00
  5.59650320e+00  5.61815264e+00  5.62311536e+00  5.69767021e+00
  5.75596475e+00  5.76305437e+00  5.85920146e+00  5.88635281e+00
  5.99365880e+00  6.00849630e+00  6.09720505e+00  6.12468845e+00
  6.13017757e+00  6.15575538e+00  6.20987484e+00  6.22108618e+00
  6.29321684e+00  6.40346318e+00  6.45783535e+00  6.46080102e+00
  6.47480543e+00  6.60113178e+00  6.65295658e+00  6.72621631e+00
  6.80752454e+00  6.85577908e+00  6.91709732e+00  6.98400038e+00
  7.00893245e+00  7.05504464e+00  7.11077301e+00  7.19646358e+00
  7.23587892e+00  7.30819903e+00  7.32472767e+00  7.36014945e+00
  7.41892347e+00  7.45970508e+00  7.51987754e+00  7.53591569e+00
  7.73677950e+00  7.77433183e+00  7.92092739e+00  7.99046941e+00
  8.09088416e+00  8.47151212e+00  1.10120014e+01  1.30462137e+01
  1.33117553e+01  1.40198424e+01  1.58738782e+01  1.72827094e+01]
E1 = -1260.3643327214904  E_coul = 504.3424017329803
cycle= 7 E= -385.24838351341  delta_E= -3e-05  |g|= 0.00148  |ddm|= 0.0229
    CPU time for cycle= 7     24.96 sec, wall time      0.78 sec
diis-norm(errvec)=0.00719622
diis-c [-3.79835841e-05 -1.83400396e-03 -1.16975169e-03  2.48262768e-02
  1.59361982e-02 -2.02426695e-01 -5.88642116e-02  1.22353219e+00]
  HOMO = -0.132410891707915  LUMO = -0.0071667721777373
  mo_energy =
[-2.06414632e+01 -2.06409470e+01 -2.05724854e+01 -1.14432941e+01
 -1.13061392e+01 -1.13050953e+01 -2.46999642e+00 -2.46628899e+00
 -2.44551950e+00 -2.44548723e+00 -2.43677331e+00 -2.41713734e+00
 -1.63244867e+00 -1.47945227e+00 -1.46572224e+00 -1.12668192e+00
 -9.80676387e-01 -8.93085482e-01 -8.27519015e-01 -8.00414777e-01
 -7.45213060e-01 -7.16417747e-01 -6.79736765e-01 -6.75503486e-01
 -6.07230436e-01 -5.81849878e-01 -5.35714061e-01 -5.20870282e-01
 -5.01899937e-01 -2.04211346e-01 -1.41018318e-01 -1.32410892e-01
 -7.16677218e-03  1.20616832e-02  2.23355528e-02  2.74874208e-02
  3.26908257e-02  3.34123227e-02  4.05771724e-02  4.49688363e-02
  5.35327094e-02  5.47837486e-02  5.81519147e-02  6.06474982e-02
  6.46003743e-02  7.01510296e-02  7.91069901e-02  8.10895855e-02
  8.27357841e-02  8.33723480e-02  8.87139835e-02  9.59627157e-02
  9.65057965e-02  1.10472495e-01  1.13582226e-01  1.20195298e-01
  1.25279051e-01  1.36429898e-01  1.41163879e-01  1.44450741e-01
  1.47805882e-01  1.51350275e-01  1.56099849e-01  1.59821583e-01
  1.63894507e-01  1.69371289e-01  1.70849878e-01  1.77895919e-01
  1.83400596e-01  1.97131770e-01  1.99129605e-01  2.05743005e-01
  2.15295904e-01  2.18332446e-01  2.21366424e-01  2.25340860e-01
  2.28016927e-01  2.33028390e-01  2.34616459e-01  2.37008734e-01
  2.45464152e-01  2.49311922e-01  2.55814365e-01  2.62015323e-01
  2.62530870e-01  2.65910941e-01  2.70451314e-01  2.77759455e-01
  2.80513418e-01  2.92945186e-01  3.00182142e-01  3.06897097e-01
  3.10411218e-01  3.13934781e-01  3.21480156e-01  3.25613027e-01
  3.37610645e-01  3.39837686e-01  3.40921600e-01  3.46328594e-01
  3.49015092e-01  3.56393775e-01  3.66590264e-01  3.80497357e-01
  3.86090561e-01  3.96666753e-01  4.00030683e-01  4.12851732e-01
  4.15508730e-01  4.18098010e-01  4.23436490e-01  4.37791250e-01
  4.44119083e-01  4.45408183e-01  4.49363772e-01  4.56547098e-01
  4.63375185e-01  4.68618120e-01  4.74298115e-01  4.78139856e-01
  4.83492053e-01  4.97941487e-01  5.03913992e-01  5.07909490e-01
  5.11689690e-01  5.16819731e-01  5.18689622e-01  5.25872335e-01
  5.35788357e-01  5.44573579e-01  5.50201812e-01  5.52439132e-01
  5.56864862e-01  5.60909028e-01  5.72201679e-01  5.79107423e-01
  5.82559633e-01  6.00841314e-01  6.04568272e-01  6.08294628e-01
  6.36027568e-01  6.44163995e-01  6.48729080e-01  6.55354962e-01
  6.62436445e-01  6.64524435e-01  6.70416006e-01  6.85073961e-01
  6.95061707e-01  7.04145606e-01  7.07279190e-01  7.14764343e-01
  7.16871203e-01  7.25305676e-01  7.31307570e-01  7.34687736e-01
  7.38255863e-01  7.42747868e-01  7.54011486e-01  7.55207936e-01
  7.59689536e-01  7.60292701e-01  7.61944637e-01  7.64438748e-01
  7.68125621e-01  7.68886818e-01  7.71114047e-01  7.75663606e-01
  7.76800089e-01  7.84624293e-01  7.88960175e-01  7.90817137e-01
  7.92952487e-01  7.93898442e-01  8.00161286e-01  8.04521384e-01
  8.05898386e-01  8.14637637e-01  8.18968531e-01  8.21172141e-01
  8.25764031e-01  8.28258289e-01  8.31225386e-01  8.39284632e-01
  8.46820154e-01  8.49508425e-01  8.69914023e-01  8.73406628e-01
  8.78486265e-01  8.83900875e-01  8.87987760e-01  8.90921950e-01
  9.02321396e-01  9.08968772e-01  9.15627907e-01  9.21449926e-01
  9.29716902e-01  9.30954635e-01  9.36467943e-01  9.44535597e-01
  9.50385568e-01  9.55127483e-01  9.62484018e-01  9.69278370e-01
  9.75821860e-01  9.91475946e-01  9.97307921e-01  1.00068442e+00
  1.00458348e+00  1.00507354e+00  1.01561251e+00  1.01952431e+00
  1.02492339e+00  1.03635841e+00  1.03738814e+00  1.05486059e+00
  1.06061614e+00  1.06844309e+00  1.08884332e+00  1.09002306e+00
  1.10452543e+00  1.11547042e+00  1.12462566e+00  1.12836692e+00
  1.14299045e+00  1.14685411e+00  1.15775278e+00  1.18555681e+00
  1.18745721e+00  1.19781212e+00  1.20100473e+00  1.20843416e+00
  1.22122603e+00  1.22350263e+00  1.24501529e+00  1.25301274e+00
  1.27205522e+00  1.27746966e+00  1.28861290e+00  1.29110523e+00
  1.30252832e+00  1.31383859e+00  1.32204481e+00  1.35169324e+00
  1.36704659e+00  1.40605129e+00  1.42608717e+00  1.44905387e+00
  1.47310931e+00  1.50699172e+00  1.51563175e+00  1.57462000e+00
  1.57629414e+00  1.59743134e+00  1.60660284e+00  1.66371588e+00
  1.71245844e+00  1.73358750e+00  1.80458525e+00  1.85814430e+00
  1.87061511e+00  1.90912945e+00  1.96906954e+00  1.99856524e+00
  2.07127313e+00  2.09621594e+00  2.15851383e+00  2.23441217e+00
  2.27656107e+00  2.32603748e+00  2.36044435e+00  2.40611337e+00
  2.45349934e+00  2.47097805e+00  2.50825995e+00  2.53465740e+00
  2.60597964e+00  2.64087643e+00  2.67456051e+00  2.69622192e+00
  2.73548081e+00  2.78593205e+00  2.83545299e+00  2.84323093e+00
  2.85833396e+00  2.87891347e+00  2.91073317e+00  2.97197882e+00
  3.01160731e+00  3.05093171e+00  3.07691502e+00  3.09055206e+00
  3.11004106e+00  3.13268186e+00  3.13873437e+00  3.19080582e+00
  3.20366349e+00  3.21690436e+00  3.23902168e+00  3.29672442e+00
  3.30704547e+00  3.31718800e+00  3.34445414e+00  3.35278837e+00
  3.38399270e+00  3.40377507e+00  3.41516040e+00  3.44550177e+00
  3.46846611e+00  3.47571642e+00  3.52948589e+00  3.53837493e+00
  3.55839907e+00  3.58007962e+00  3.61843706e+00  3.68181953e+00
  3.69988120e+00  3.71093955e+00  3.75619085e+00  3.78229392e+00
  3.80375656e+00  3.86490796e+00  3.86894557e+00  3.90242760e+00
  3.91692269e+00  3.96662688e+00  3.97220540e+00  4.03507891e+00
  4.05173014e+00  4.06718297e+00  4.08328548e+00  4.10050612e+00
  4.16228519e+00  4.25440057e+00  4.28046056e+00  4.29598998e+00
  4.30100438e+00  4.39495468e+00  4.39728250e+00  4.43598222e+00
  4.44550251e+00  4.50551141e+00  4.52479766e+00  4.52930238e+00
  4.66063221e+00  4.67871945e+00  4.68885636e+00  4.71318677e+00
  4.77801175e+00  4.82921079e+00  4.83959154e+00  4.95661578e+00
  5.01748205e+00  5.06241789e+00  5.09023785e+00  5.15249247e+00
  5.16390561e+00  5.32852021e+00  5.34632483e+00  5.40615451e+00
  5.44934708e+00  5.48788288e+00  5.49711915e+00  5.54016940e+00
  5.59617488e+00  5.61804707e+00  5.62277388e+00  5.69758238e+00
  5.75580648e+00  5.76295499e+00  5.85907748e+00  5.88618287e+00
  5.99348221e+00  6.00833548e+00  6.09705059e+00  6.12440805e+00
  6.13008356e+00  6.15557714e+00  6.20957234e+00  6.22088350e+00
  6.29306756e+00  6.40320733e+00  6.45755358e+00  6.46063771e+00
  6.47459227e+00  6.60090153e+00  6.65270635e+00  6.72590691e+00
  6.80716297e+00  6.85544434e+00  6.91680580e+00  6.98361727e+00
  7.00850351e+00  7.05469761e+00  7.11043168e+00  7.19611590e+00
  7.23555102e+00  7.30786692e+00  7.32437548e+00  7.35980377e+00
  7.41853356e+00  7.45936482e+00  7.51952074e+00  7.53559556e+00
  7.73640348e+00  7.77401008e+00  7.92055913e+00  7.99011334e+00
  8.09055952e+00  8.47119372e+00  1.10117184e+01  1.30459306e+01
  1.33113801e+01  1.40195937e+01  1.58736916e+01  1.72823758e+01]
E1 = -1260.3717838737916  E_coul = 504.34984341670895
cycle= 8 E= -385.248392981982  delta_E= -9.47e-06  |g|= 0.000761  |ddm|= 0.01
    CPU time for cycle= 8     25.35 sec, wall time      0.80 sec
diis-norm(errvec)=0.00422123
diis-c [-1.05450081e-05 -8.36784677e-04 -1.47053952e-03  4.63521151e-04
  3.07254065e-02  9.74345470e-02 -3.00016067e-01 -5.54745408e-01
  1.72844532e+00]
  HOMO = -0.132438906513642  LUMO = -0.00718307572779174
  mo_energy =
[-2.06412834e+01 -2.06407689e+01 -2.05723501e+01 -1.14432202e+01
 -1.13060676e+01 -1.13050239e+01 -2.47040877e+00 -2.46650306e+00
 -2.44500534e+00 -2.44495841e+00 -2.43684093e+00 -2.41700084e+00
 -1.63232533e+00 -1.47936207e+00 -1.46560942e+00 -1.12660795e+00
 -9.80603204e-01 -8.92988011e-01 -8.27440742e-01 -8.00316744e-01
 -7.45161340e-01 -7.16312109e-01 -6.79674067e-01 -6.75431245e-01
 -6.07103171e-01 -5.81762552e-01 -5.35604651e-01 -5.20764735e-01
 -5.01830000e-01 -2.04078215e-01 -1.41008456e-01 -1.32438907e-01
 -7.18307573e-03  1.21478195e-02  2.24010151e-02  2.75318347e-02
  3.27137088e-02  3.33987022e-02  4.05518215e-02  4.49947776e-02
  5.35760588e-02  5.47598666e-02  5.81739472e-02  6.06337314e-02
  6.45903139e-02  7.02090218e-02  7.91389595e-02  8.11279229e-02
  8.27868475e-02  8.33675853e-02  8.86925516e-02  9.59795179e-02
  9.65207105e-02  1.10533809e-01  1.13570533e-01  1.20269958e-01
  1.25262354e-01  1.36426113e-01  1.41162032e-01  1.44504960e-01
  1.47736293e-01  1.51402934e-01  1.56128431e-01  1.59801744e-01
  1.63921965e-01  1.69415522e-01  1.70844992e-01  1.77928996e-01
  1.83416421e-01  1.97152100e-01  1.99179468e-01  2.05783080e-01
  2.15342159e-01  2.18363130e-01  2.21378788e-01  2.25325966e-01
  2.28033418e-01  2.33041751e-01  2.34658529e-01  2.37031345e-01
  2.45499773e-01  2.49372288e-01  2.55869516e-01  2.62030588e-01
  2.62536965e-01  2.65897478e-01  2.70491057e-01  2.77790961e-01
  2.80564303e-01  2.92896785e-01  3.00151047e-01  3.06964876e-01
  3.10470203e-01  3.13930823e-01  3.21500656e-01  3.25644039e-01
  3.37603366e-01  3.39839783e-01  3.40969180e-01  3.46372270e-01
  3.49143912e-01  3.56404186e-01  3.66613452e-01  3.80571147e-01
  3.86154711e-01  3.96747737e-01  4.00073392e-01  4.12905842e-01
  4.15583192e-01  4.18152289e-01  4.23501193e-01  4.37834287e-01
  4.44191785e-01  4.45470107e-01  4.49391867e-01  4.56525861e-01
  4.63357378e-01  4.68699381e-01  4.74343031e-01  4.78254053e-01
  4.83411341e-01  4.98008335e-01  5.04005188e-01  5.07935753e-01
  5.11814383e-01  5.16878557e-01  5.18720521e-01  5.25922171e-01
  5.35815239e-01  5.44679278e-01  5.50268763e-01  5.52477925e-01
  5.56907615e-01  5.60933825e-01  5.72261269e-01  5.79226280e-01
  5.82546207e-01  6.00835366e-01  6.04597654e-01  6.08358438e-01
  6.36089614e-01  6.44192322e-01  6.48801277e-01  6.55388823e-01
  6.62518052e-01  6.64568409e-01  6.70464522e-01  6.85125759e-01
  6.95158509e-01  7.04219148e-01  7.07338079e-01  7.14841579e-01
  7.16982857e-01  7.25386247e-01  7.31424190e-01  7.34727021e-01
  7.38078063e-01  7.42739067e-01  7.54044445e-01  7.55113996e-01
  7.59714710e-01  7.60282293e-01  7.61846937e-01  7.64493706e-01
  7.68160848e-01  7.68786537e-01  7.71151350e-01  7.75568390e-01
  7.76842521e-01  7.84619780e-01  7.89016751e-01  7.90865706e-01
  7.93008466e-01  7.93970082e-01  8.00164874e-01  8.04519087e-01
  8.05968649e-01  8.14666383e-01  8.19072845e-01  8.21258623e-01
  8.25711161e-01  8.28331330e-01  8.31314710e-01  8.39289649e-01
  8.46856399e-01  8.49581479e-01  8.70042272e-01  8.73516508e-01
  8.78602639e-01  8.83960188e-01  8.88044931e-01  8.90965528e-01
  9.02337923e-01  9.09033799e-01  9.15734598e-01  9.21485317e-01
  9.29760044e-01  9.31019532e-01  9.36557603e-01  9.44610512e-01
  9.50474422e-01  9.55170907e-01  9.62520314e-01  9.69368276e-01
  9.75900137e-01  9.91496928e-01  9.97409385e-01  1.00078234e+00
  1.00467783e+00  1.00511713e+00  1.01566887e+00  1.01958068e+00
  1.02495107e+00  1.03644588e+00  1.03745866e+00  1.05491877e+00
  1.06065927e+00  1.06849194e+00  1.08893639e+00  1.09013167e+00
  1.10462044e+00  1.11553935e+00  1.12476885e+00  1.12845183e+00
  1.14313550e+00  1.14695752e+00  1.15790618e+00  1.18561485e+00
  1.18754409e+00  1.19790202e+00  1.20114465e+00  1.20850151e+00
  1.22134157e+00  1.22354115e+00  1.24507363e+00  1.25307706e+00
  1.27216605e+00  1.27753917e+00  1.28869590e+00  1.29113582e+00
  1.30259102e+00  1.31389225e+00  1.32212831e+00  1.35176951e+00
  1.36711683e+00  1.40609375e+00  1.42615308e+00  1.44908610e+00
  1.47315845e+00  1.50704435e+00  1.51566735e+00  1.57468060e+00
  1.57633263e+00  1.59751409e+00  1.60664531e+00  1.66375777e+00
  1.71253259e+00  1.73367228e+00  1.80459528e+00  1.85821348e+00
  1.87065910e+00  1.90920449e+00  1.96915164e+00  1.99863854e+00
  2.07134756e+00  2.09631246e+00  2.15859892e+00  2.23449781e+00
  2.27664429e+00  2.32610425e+00  2.36051646e+00  2.40618719e+00
  2.45359492e+00  2.47105874e+00  2.50833457e+00  2.53473813e+00
  2.60604294e+00  2.64095035e+00  2.67462755e+00  2.69629563e+00
  2.73555623e+00  2.78598098e+00  2.83552932e+00  2.84331822e+00
  2.85840579e+00  2.87895991e+00  2.91078662e+00  2.97204778e+00
  3.01167479e+00  3.05096569e+00  3.07689931e+00  3.09042441e+00
  3.11001615e+00  3.13274507e+00  3.13875924e+00  3.19088100e+00
[...]
  2.62487429e-01  2.65838430e-01  2.70490912e-01  2.77771087e-01
  2.80589379e-01  2.92805777e-01  3.00082390e-01  3.07003128e-01
  3.10502223e-01  3.13882355e-01  3.21485264e-01  3.25639920e-01
  3.37552803e-01  3.39799704e-01  3.40978619e-01  3.46374221e-01
  3.49248878e-01  3.56406354e-01  3.66606737e-01  3.80590348e-01
  3.86207557e-01  3.96782303e-01  4.00087002e-01  4.12897889e-01
  4.15594556e-01  4.18162096e-01  4.23507872e-01  4.37790531e-01
  4.44169482e-01  4.45450106e-01  4.49330023e-01  4.56449205e-01
  4.63290126e-01  4.68762309e-01  4.74343232e-01  4.78326910e-01
  4.83270214e-01  4.98044573e-01  5.04058870e-01  5.07908235e-01
  5.11916901e-01  5.16870490e-01  5.18705408e-01  5.25945540e-01
  5.35782305e-01  5.44730880e-01  5.50276467e-01  5.52463248e-01
  5.56857982e-01  5.60896554e-01  5.72282561e-01  5.79304267e-01
  5.82488106e-01  6.00749307e-01  6.04553699e-01  6.08371357e-01
  6.36064371e-01  6.44152463e-01  6.48789412e-01  6.55370360e-01
  6.62530813e-01  6.64539864e-01  6.70428906e-01  6.85084929e-01
  6.95186423e-01  7.04208906e-01  7.07330821e-01  7.14835411e-01
  7.17066857e-01  7.25391238e-01  7.31487419e-01  7.34698364e-01
  7.37849889e-01  7.42664757e-01  7.54009651e-01  7.54944146e-01
  7.59671896e-01  7.60198261e-01  7.61686126e-01  7.64488932e-01
  7.68119789e-01  7.68623839e-01  7.71140437e-01  7.75412173e-01
  7.76811889e-01  7.84539190e-01  7.89005807e-01  7.90867075e-01
  7.93001132e-01  7.93977481e-01  8.00099095e-01  8.04456896e-01
  8.05972125e-01  8.14648545e-01  8.19120927e-01  8.21287998e-01
  8.25609053e-01  8.28369599e-01  8.31347208e-01  8.39228639e-01
  8.46838877e-01  8.49607384e-01  8.70135645e-01  8.73569357e-01
  8.78680912e-01  8.83979837e-01  8.88039554e-01  8.90918646e-01
  9.02305331e-01  9.09044760e-01  9.15787145e-01  9.21451161e-01
  9.29732768e-01  9.31003391e-01  9.36603279e-01  9.44610383e-01
  9.50495332e-01  9.55140029e-01  9.62483525e-01  9.69400620e-01
  9.75917816e-01  9.91448362e-01  9.97443846e-01  1.00083004e+00
  1.00468371e+00  1.00510946e+00  1.01565130e+00  1.01958873e+00
  1.02492161e+00  1.03648838e+00  1.03749009e+00  1.05490995e+00
  1.06061971e+00  1.06845554e+00  1.08894193e+00  1.09018057e+00
  1.10465279e+00  1.11551770e+00  1.12486774e+00  1.12847933e+00
  1.14320731e+00  1.14698037e+00  1.15801406e+00  1.18556687e+00
  1.18754074e+00  1.19791718e+00  1.20125601e+00  1.20847700e+00
  1.22134852e+00  1.22350047e+00  1.24504057e+00  1.25305458e+00
  1.27220307e+00  1.27753368e+00  1.28869091e+00  1.29109477e+00
  1.30256476e+00  1.31386057e+00  1.32210899e+00  1.35174184e+00
  1.36707855e+00  1.40604899e+00  1.42610279e+00  1.44904325e+00
  1.47310761e+00  1.50699649e+00  1.51562459e+00  1.57463363e+00
  1.57629378e+00  1.59745580e+00  1.60659479e+00  1.66371379e+00
  1.71247946e+00  1.73361147e+00  1.80456354e+00  1.85814774e+00
  1.87061471e+00  1.90914689e+00  1.96909974e+00  1.99858045e+00
  2.07128659e+00  2.09625268e+00  2.15853874e+00  2.23444065e+00
  2.27657501e+00  2.32604235e+00  2.36045676e+00  2.40612597e+00
  2.45352835e+00  2.47099862e+00  2.50828059e+00  2.53467454e+00
  2.60598865e+00  2.64089596e+00  2.67457539e+00  2.69623923e+00
  2.73550074e+00  2.78593816e+00  2.83546670e+00  2.84325505e+00
  2.85835147e+00  2.87891433e+00  2.91076513e+00  2.97198102e+00
  3.01161541e+00  3.05091367e+00  3.07676157e+00  3.09020118e+00
  3.10992669e+00  3.13271202e+00  3.13867611e+00  3.19086473e+00
  3.20397514e+00  3.21731142e+00  3.23904249e+00  3.29672984e+00
  3.30707474e+00  3.31718781e+00  3.34447805e+00  3.35280166e+00
  3.38401782e+00  3.40414531e+00  3.41517457e+00  3.44551922e+00
  3.46848640e+00  3.47571942e+00  3.52948336e+00  3.53838051e+00
  3.55842281e+00  3.58009071e+00  3.61844199e+00  3.68183287e+00
  3.69988418e+00  3.71095528e+00  3.75621153e+00  3.78230107e+00
  3.80376892e+00  3.86490666e+00  3.86892435e+00  3.90241304e+00
  3.91693639e+00  3.96662867e+00  3.97219107e+00  4.03506614e+00
  4.05171898e+00  4.06717216e+00  4.08329408e+00  4.10049863e+00
  4.16228607e+00  4.25439023e+00  4.28044200e+00  4.29598818e+00
  4.30099063e+00  4.39494994e+00  4.39727287e+00  4.43598368e+00
  4.44548579e+00  4.50549962e+00  4.52478300e+00  4.52928100e+00
  4.66062940e+00  4.67871756e+00  4.68886785e+00  4.71323803e+00
  4.77804875e+00  4.82923172e+00  4.83959731e+00  4.95662322e+00
  5.01747504e+00  5.06242544e+00  5.09024737e+00  5.15250048e+00
  5.16393246e+00  5.32853144e+00  5.34633895e+00  5.40614553e+00
  5.44933742e+00  5.48790984e+00  5.49713276e+00  5.54016473e+00
  5.59622543e+00  5.61805195e+00  5.62282731e+00  5.69758348e+00
  5.75582436e+00  5.76296258e+00  5.85908588e+00  5.88620119e+00
  5.99350127e+00  6.00835377e+00  6.09706554e+00  6.12444728e+00
  6.13008922e+00  6.15559995e+00  6.20961819e+00  6.22090840e+00
  6.29308289e+00  6.40324587e+00  6.45759290e+00  6.46065592e+00
  6.47461982e+00  6.60093014e+00  6.65273776e+00  6.72595266e+00
  6.80721758e+00  6.85549680e+00  6.91684266e+00  6.98368026e+00
  7.00857079e+00  7.05475448e+00  7.11048105e+00  7.19616007e+00
  7.23559337e+00  7.30791497e+00  7.32442332e+00  7.35984997e+00
  7.41860915e+00  7.45941698e+00  7.51957693e+00  7.53564042e+00
  7.73646164e+00  7.77404928e+00  7.92061739e+00  7.99016274e+00
  8.09059977e+00  8.47123595e+00  1.10117559e+01  1.30459689e+01
  1.33114345e+01  1.40196258e+01  1.58737169e+01  1.72824224e+01]
E1 = -1260.3696692026213  E_coul = 504.3477223143203
cycle= 13 E= -385.248399413201  delta_E= -1.75e-09  |g|= 1.53e-05  |ddm|= 0.000147
    CPU time for cycle= 13     25.26 sec, wall time      0.80 sec
diis-norm(errvec)=5.85485e-05
diis-c [-1.72106862e-09  3.71983485e-02  2.10763147e-03 -2.48096112e-01
  1.54723839e-02  1.20600496e+00  1.38854428e-03 -3.30945363e-03
 -1.07662979e-02]
  HOMO = -0.132492029481535  LUMO = -0.0072497363145674
  mo_energy =
[-2.06413728e+01 -2.06408685e+01 -2.05723798e+01 -1.14432972e+01
 -1.13061028e+01 -1.13050589e+01 -2.47086212e+00 -2.46682736e+00
 -2.44451655e+00 -2.44444830e+00 -2.43682238e+00 -2.41709132e+00
 -1.63239815e+00 -1.47940946e+00 -1.46568233e+00 -1.12665838e+00
 -9.80661609e-01 -8.93054416e-01 -8.27493983e-01 -8.00378384e-01
 -7.45208649e-01 -7.16375469e-01 -6.79723761e-01 -6.75481522e-01
 -6.07186532e-01 -5.81823638e-01 -5.35649742e-01 -5.20833217e-01
 -5.01880837e-01 -2.03995939e-01 -1.41068918e-01 -1.32492029e-01
 -7.24973631e-03  1.21954116e-02  2.24410705e-02  2.75809831e-02
  3.27343085e-02  3.33757628e-02  4.04955323e-02  4.49973338e-02
  5.36199188e-02  5.47118996e-02  5.81829907e-02  6.06037700e-02
  6.45657403e-02  7.02604932e-02  7.91776801e-02  8.11543128e-02
  8.28472315e-02  8.33592433e-02  8.86397790e-02  9.59669723e-02
  9.65178248e-02  1.10575321e-01  1.13517773e-01  1.20340557e-01
  1.25203555e-01  1.36386837e-01  1.41123216e-01  1.44545008e-01
  1.47619593e-01  1.51418639e-01  1.56138496e-01  1.59730530e-01
  1.63926351e-01  1.69420817e-01  1.70806923e-01  1.77930877e-01
  1.83411585e-01  1.97133411e-01  1.99216496e-01  2.05830371e-01
  2.15295752e-01  2.18343849e-01  2.21343359e-01  2.25286217e-01
  2.28020363e-01  2.33023253e-01  2.34672720e-01  2.37018616e-01
  2.45523625e-01  2.49395563e-01  2.55895436e-01  2.61991078e-01
  2.62487804e-01  2.65838689e-01  2.70491266e-01  2.77771437e-01
  2.80589791e-01  2.92805919e-01  3.00082563e-01  3.07003525e-01
  3.10502801e-01  3.13883021e-01  3.21485876e-01  3.25640073e-01
  3.37553003e-01  3.39800100e-01  3.40979120e-01  3.46374557e-01
  3.49249317e-01  3.56406872e-01  3.66606920e-01  3.80590904e-01
  3.86208230e-01  3.96783077e-01  4.00087504e-01  4.12898457e-01
  4.15595131e-01  4.18162544e-01  4.23508556e-01  4.37791512e-01
  4.44170257e-01  4.45450929e-01  4.49330172e-01  4.56450014e-01
  4.63290260e-01  4.68762855e-01  4.74343303e-01  4.78327305e-01
  4.83270314e-01  4.98044798e-01  5.04059403e-01  5.07908244e-01
  5.11917511e-01  5.16870719e-01  5.18706140e-01  5.25946387e-01
  5.35783064e-01  5.44731387e-01  5.50277190e-01  5.52464040e-01
  5.56858895e-01  5.60897099e-01  5.72283321e-01  5.79304932e-01
  5.82488208e-01  6.00749610e-01  6.04554452e-01  6.08372194e-01
  6.36065243e-01  6.44153345e-01  6.48790185e-01  6.55371039e-01
  6.62531571e-01  6.64540744e-01  6.70429814e-01  6.85085583e-01
  6.95187386e-01  7.04209907e-01  7.07331548e-01  7.14835970e-01
  7.17067278e-01  7.25392198e-01  7.31488246e-01  7.34699042e-01
  7.37849719e-01  7.42665260e-01  7.54009735e-01  7.54945396e-01
  7.59672256e-01  7.60198918e-01  7.61686552e-01  7.64489425e-01
  7.68120158e-01  7.68623880e-01  7.71141048e-01  7.75412270e-01
  7.76812207e-01  7.84539553e-01  7.89005951e-01  7.90867555e-01
  7.93001586e-01  7.93978104e-01  8.00099735e-01  8.04457680e-01
  8.05972271e-01  8.14648593e-01  8.19121445e-01  8.21288524e-01
  8.25608973e-01  8.28370049e-01  8.31347539e-01  8.39228959e-01
  8.46839481e-01  8.49608071e-01  8.70136479e-01  8.73570123e-01
  8.78681471e-01  8.83980506e-01  8.88040190e-01  8.90919390e-01
  9.02305544e-01  9.09045652e-01  9.15787941e-01  9.21451973e-01
  9.29733254e-01  9.31004226e-01  9.36604041e-01  9.44610822e-01
  9.50496119e-01  9.55140638e-01  9.62484215e-01  9.69401156e-01
  9.75918406e-01  9.91449039e-01  9.97444291e-01  1.00083049e+00
  1.00468421e+00  1.00511010e+00  1.01565237e+00  1.01958919e+00
  1.02492256e+00  1.03648927e+00  1.03749103e+00  1.05491050e+00
  1.06062074e+00  1.06845634e+00  1.08894295e+00  1.09018125e+00
  1.10465377e+00  1.11551875e+00  1.12486865e+00  1.12848014e+00
  1.14320823e+00  1.14698134e+00  1.15801507e+00  1.18556792e+00
  1.18754172e+00  1.19791829e+00  1.20125686e+00  1.20847788e+00
  1.22134950e+00  1.22350142e+00  1.24504140e+00  1.25305567e+00
  1.27220434e+00  1.27753469e+00  1.28869208e+00  1.29109548e+00
  1.30256575e+00  1.31386126e+00  1.32211011e+00  1.35174310e+00
  1.36707914e+00  1.40604980e+00  1.42610375e+00  1.44904416e+00
  1.47310813e+00  1.50699744e+00  1.51562565e+00  1.57463461e+00
  1.57629464e+00  1.59745671e+00  1.60659599e+00  1.66371476e+00
  1.71248039e+00  1.73361171e+00  1.80456428e+00  1.85814880e+00
  1.87061569e+00  1.90914750e+00  1.96909993e+00  1.99858190e+00
  2.07128796e+00  2.09625245e+00  2.15853970e+00  2.23444144e+00
  2.27657695e+00  2.32604355e+00  2.36045778e+00  2.40612693e+00
  2.45352971e+00  2.47099966e+00  2.50828147e+00  2.53467592e+00
  2.60598988e+00  2.64089678e+00  2.67457648e+00  2.69623988e+00
  2.73550163e+00  2.78593896e+00  2.83546792e+00  2.84325644e+00
  2.85835215e+00  2.87891525e+00  2.91076584e+00  2.97198208e+00
  3.01161635e+00  3.05091461e+00  3.07676135e+00  3.09020202e+00
  3.10992737e+00  3.13271276e+00  3.13867695e+00  3.19086571e+00
  3.20397597e+00  3.21731214e+00  3.23904354e+00  3.29673070e+00
  3.30707602e+00  3.31718885e+00  3.34447932e+00  3.35280285e+00
  3.38401940e+00  3.40414680e+00  3.41517564e+00  3.44552006e+00
  3.46848752e+00  3.47572036e+00  3.52948451e+00  3.53838180e+00
  3.55842407e+00  3.58009255e+00  3.61844340e+00  3.68183413e+00
  3.69988540e+00  3.71095589e+00  3.75621190e+00  3.78230234e+00
  3.80377022e+00  3.86490785e+00  3.86892529e+00  3.90241394e+00
  3.91693746e+00  3.96662997e+00  3.97219190e+00  4.03506710e+00
  4.05171973e+00  4.06717309e+00  4.08329503e+00  4.10049967e+00
  4.16228697e+00  4.25439110e+00  4.28044277e+00  4.29598951e+00
  4.30099152e+00  4.39495056e+00  4.39727390e+00  4.43598459e+00
  4.44548643e+00  4.50550068e+00  4.52478384e+00  4.52928182e+00
  4.66063016e+00  4.67871724e+00  4.68886866e+00  4.71323532e+00
  4.77804688e+00  4.82923206e+00  4.83959863e+00  4.95662424e+00
  5.01747610e+00  5.06242678e+00  5.09024826e+00  5.15250140e+00
  5.16393252e+00  5.32853269e+00  5.34634034e+00  5.40614619e+00
  5.44933828e+00  5.48790976e+00  5.49713371e+00  5.54016553e+00
  5.59622281e+00  5.61805207e+00  5.62282473e+00  5.69758406e+00
  5.75582547e+00  5.76296347e+00  5.85908721e+00  5.88620176e+00
  5.99350295e+00  6.00835402e+00  6.09706702e+00  6.12444676e+00
  6.13009024e+00  6.15560157e+00  6.20961957e+00  6.22090943e+00
  6.29308426e+00  6.40324780e+00  6.45759462e+00  6.46065732e+00
  6.47462160e+00  6.60093128e+00  6.65273959e+00  6.72595268e+00
  6.80721658e+00  6.85549743e+00  6.91684317e+00  6.98367817e+00
  7.00856716e+00  7.05475356e+00  7.11048020e+00  7.19616107e+00
  7.23559493e+00  7.30791683e+00  7.32442596e+00  7.35985179e+00
  7.41860662e+00  7.45941828e+00  7.51957675e+00  7.53564277e+00
  7.73646095e+00  7.77405168e+00  7.92061659e+00  7.99016359e+00
  8.09060198e+00  8.47123569e+00  1.10117572e+01  1.30459688e+01
  1.33114375e+01  1.40196263e+01  1.58737175e+01  1.72824207e+01]
E1 = -1260.3696885776694  E_coul = 504.3477416889202
cycle= 14 E= -385.248399413649  delta_E= -4.48e-10  |g|= 6.05e-06  |ddm|= 8.9e-05
    CPU time for cycle= 14     25.33 sec, wall time      0.80 sec
  HOMO = -0.132492085227857  LUMO = -0.00724985285796236
  mo_energy =
[-2.06413759e+01 -2.06408711e+01 -2.05723750e+01 -1.14432975e+01
 -1.13061011e+01 -1.13050572e+01 -2.47086161e+00 -2.46682888e+00
 -2.44451634e+00 -2.44444816e+00 -2.43682198e+00 -2.41709232e+00
 -1.63239855e+00 -1.47940837e+00 -1.46568312e+00 -1.12665788e+00
 -9.80661658e-01 -8.93054740e-01 -8.27494033e-01 -8.00378025e-01
 -7.45208416e-01 -7.16374962e-01 -6.79723253e-01 -6.75481689e-01
 -6.07187325e-01 -5.81823299e-01 -5.35648937e-01 -5.20832762e-01
 -5.01881028e-01 -2.03996145e-01 -1.41069245e-01 -1.32492085e-01
 -7.24985286e-03  1.21953431e-02  2.24409924e-02  2.75809443e-02
  3.27342699e-02  3.33757385e-02  4.04953835e-02  4.49973032e-02
  5.36199361e-02  5.47118577e-02  5.81829504e-02  6.06037140e-02
  6.45656890e-02  7.02604305e-02  7.91776810e-02  8.11542571e-02
  8.28472660e-02  8.33592247e-02  8.86396505e-02  9.59668665e-02
  9.65177536e-02  1.10575302e-01  1.13517611e-01  1.20340577e-01
  1.25203457e-01  1.36386716e-01  1.41123066e-01  1.44545056e-01
  1.47619356e-01  1.51418545e-01  1.56138453e-01  1.59730299e-01
  1.63926286e-01  1.69420804e-01  1.70806804e-01  1.77930857e-01
  1.83411656e-01  1.97133370e-01  1.99216518e-01  2.05830354e-01
  2.15295703e-01  2.18343755e-01  2.21343140e-01  2.25286124e-01
  2.28020259e-01  2.33023214e-01  2.34672772e-01  2.37018542e-01
  2.45523625e-01  2.49395491e-01  2.55895381e-01  2.61990890e-01
  2.62487687e-01  2.65838525e-01  2.70491177e-01  2.77771312e-01
  2.80589716e-01  2.92805740e-01  3.00082376e-01  3.07003516e-01
  3.10502804e-01  3.13883056e-01  3.21485928e-01  3.25639995e-01
  3.37552850e-01  3.39800044e-01  3.40979070e-01  3.46374487e-01
  3.49249358e-01  3.56406782e-01  3.66606818e-01  3.80590740e-01
  3.86208187e-01  3.96782988e-01  4.00087395e-01  4.12898155e-01
  4.15595068e-01  4.18162383e-01  4.23508437e-01  4.37791415e-01
  4.44170042e-01  4.45450815e-01  4.49329876e-01  4.56450080e-01
  4.63290094e-01  4.68762857e-01  4.74343027e-01  4.78327273e-01
  4.83270036e-01  4.98044761e-01  5.04059412e-01  5.07908034e-01
  5.11917518e-01  5.16870615e-01  5.18706288e-01  5.25946372e-01
  5.35783109e-01  5.44731379e-01  5.50277250e-01  5.52464209e-01
  5.56858598e-01  5.60897114e-01  5.72283372e-01  5.79304896e-01
  5.82488047e-01  6.00749263e-01  6.04554277e-01  6.08372010e-01
  6.36065311e-01  6.44153437e-01  6.48789923e-01  6.55371185e-01
  6.62531605e-01  6.64540754e-01  6.70429704e-01  6.85085379e-01
  6.95187456e-01  7.04209799e-01  7.07331416e-01  7.14835735e-01
  7.17067229e-01  7.25392032e-01  7.31488176e-01  7.34698859e-01
  7.37849423e-01  7.42665058e-01  7.54009409e-01  7.54945322e-01
  7.59671918e-01  7.60198834e-01  7.61686260e-01  7.64489221e-01
  7.68119906e-01  7.68623641e-01  7.71140888e-01  7.75412045e-01
  7.76811884e-01  7.84539275e-01  7.89005718e-01  7.90867535e-01
  7.93001376e-01  7.93977972e-01  8.00099577e-01  8.04457630e-01
  8.05971960e-01  8.14648389e-01  8.19121340e-01  8.21288437e-01
  8.25608773e-01  8.28369956e-01  8.31347426e-01  8.39228780e-01
  8.46839346e-01  8.49607994e-01  8.70136425e-01  8.73570113e-01
  8.78681427e-01  8.83980430e-01  8.88040121e-01  8.90919245e-01
  9.02305337e-01  9.09045553e-01  9.15787834e-01  9.21451808e-01
  9.29733090e-01  9.31004126e-01  9.36603908e-01  9.44610593e-01
  9.50496019e-01  9.55140538e-01  9.62484104e-01  9.69401000e-01
  9.75918352e-01  9.91448872e-01  9.97444042e-01  1.00083043e+00
  1.00468394e+00  1.00510995e+00  1.01565229e+00  1.01958903e+00
  1.02492270e+00  1.03648914e+00  1.03749098e+00  1.05491034e+00
  1.06062074e+00  1.06845631e+00  1.08894290e+00  1.09018125e+00
  1.10465372e+00  1.11551850e+00  1.12486862e+00  1.12848009e+00
  1.14320813e+00  1.14698120e+00  1.15801499e+00  1.18556752e+00
  1.18754155e+00  1.19791823e+00  1.20125686e+00  1.20847785e+00
  1.22134935e+00  1.22350155e+00  1.24504155e+00  1.25305570e+00
  1.27220425e+00  1.27753479e+00  1.28869202e+00  1.29109571e+00
  1.30256586e+00  1.31386152e+00  1.32211001e+00  1.35174302e+00
  1.36707930e+00  1.40604999e+00  1.42610386e+00  1.44904432e+00
  1.47310828e+00  1.50699755e+00  1.51562569e+00  1.57463472e+00
  1.57629486e+00  1.59745671e+00  1.60659588e+00  1.66371489e+00
  1.71248039e+00  1.73361181e+00  1.80456470e+00  1.85814878e+00
  1.87061592e+00  1.90914764e+00  1.96910029e+00  1.99858181e+00
  2.07128784e+00  2.09625275e+00  2.15853965e+00  2.23444149e+00
  2.27657654e+00  2.32604340e+00  2.36045777e+00  2.40612701e+00
  2.45352959e+00  2.47099964e+00  2.50828169e+00  2.53467586e+00
  2.60599002e+00  2.64089703e+00  2.67457678e+00  2.69624016e+00
  2.73550205e+00  2.78593933e+00  2.83546810e+00  2.84325644e+00
  2.85835260e+00  2.87891576e+00  2.91076598e+00  2.97198223e+00
  3.01161678e+00  3.05091518e+00  3.07676109e+00  3.09020218e+00
  3.10992746e+00  3.13271300e+00  3.13867711e+00  3.19086611e+00
  3.20397623e+00  3.21731237e+00  3.23904405e+00  3.29673116e+00
  3.30707633e+00  3.31718925e+00  3.34447957e+00  3.35280320e+00
  3.38401957e+00  3.40414681e+00  3.41517593e+00  3.44552044e+00
  3.46848786e+00  3.47572079e+00  3.52948464e+00  3.53838189e+00
  3.55842423e+00  3.58009225e+00  3.61844350e+00  3.68183424e+00
  3.69988544e+00  3.71095634e+00  3.75621234e+00  3.78230257e+00
  3.80377029e+00  3.86490807e+00  3.86892555e+00  3.90241423e+00
  3.91693766e+00  3.96663004e+00  3.97219224e+00  4.03506740e+00
  4.05172003e+00  4.06717340e+00  4.08329506e+00  4.10049985e+00
  4.16228720e+00  4.25439132e+00  4.28044313e+00  4.29598940e+00
  4.30099180e+00  4.39495091e+00  4.39727399e+00  4.43598498e+00
  4.44548681e+00  4.50550085e+00  4.52478423e+00  4.52928208e+00
  4.66063055e+00  4.67871787e+00  4.68886908e+00  4.71323663e+00
  4.77804783e+00  4.82923225e+00  4.83959851e+00  4.95662463e+00
  5.01747631e+00  5.06242685e+00  5.09024843e+00  5.15250169e+00
  5.16393283e+00  5.32853272e+00  5.34634042e+00  5.40614665e+00
  5.44933862e+00  5.48791018e+00  5.49713377e+00  5.54016594e+00
  5.59622392e+00  5.61805269e+00  5.62282580e+00  5.69758440e+00
  5.75582555e+00  5.76296380e+00  5.85908725e+00  5.88620190e+00
  5.99350270e+00  6.00835443e+00  6.09706695e+00  6.12444726e+00
  6.13009066e+00  6.15560155e+00  6.20961925e+00  6.22090945e+00
  6.29308432e+00  6.40324730e+00  6.45759413e+00  6.46065731e+00
  6.47462125e+00  6.60093111e+00  6.65273909e+00  6.72595287e+00
  6.80721708e+00  6.85549741e+00  6.91684314e+00  6.98367906e+00
  7.00856861e+00  7.05475407e+00  7.11048075e+00  7.19616068e+00
  7.23559425e+00  7.30791608e+00  7.32442475e+00  7.35985091e+00
  7.41860761e+00  7.45941762e+00  7.51957690e+00  7.53564167e+00
  7.73646118e+00  7.77405058e+00  7.92061691e+00  7.99016315e+00
  8.09060098e+00  8.47123603e+00  1.10117568e+01  1.30459694e+01
  1.33114360e+01  1.40196268e+01  1.58737186e+01  1.72824219e+01]
E1 = -1260.3696903897041  E_coul = 504.34774350089214
Extra cycle  E= -385.248399413712  delta_E= -6.28e-11  |g|= 4.07e-06  |ddm|= 1.87e-05
    CPU time for scf_cycle    535.78 sec, wall time     16.98 sec
    CPU time for SCF    535.78 sec, wall time     16.98 sec
converged SCF energy = -385.248399413712
