#INFO: **** input file is /burg/ccce/users/eav2136/projects/batteries/01_mp2/hf_script.py ****
#!/usr/bin/env python3
from pyscf import gto, scf, mp
import sys
from fileutils import dump
import h5py

mol = gto.Mole()
mol.verbose = 10
mol.atom = f"geom_{sys.argv[1]}.xyz"
mol.basis = "ccpvtz"
mol.unit = "ANG"
mol.build()

mf = scf.RHF(mol)
# determine the output of mf.kernel()
mf.kernel()

conv = mf.converged
e_tot = mf.e_tot
mo_energy = mf.mo_energy
mo_coeff = mf.mo_coeff

dataout = {}
dataout["e_tot"] = e_tot
dataout["conv"] = conv
dump(dataout, f"data/hf_geom_{sys.argv[1]}.json")

with h5py.File(f"data/hf_geom_{sys.argv[1]}.h5", "w") as f:
    f.create_dataset("mo_energy", data=mo_energy)
    f.create_dataset("mo_coeff", data=mo_coeff)#INFO: ******************** input file end ********************


System: uname_result(system='Linux', node='g146', release='4.18.0-193.el8.x86_64', version='#1 SMP Fri Mar 27 14:35:58 UTC 2020', machine='x86_64')  Threads 32
Python 3.10.12 (main, Jul 29 2023, 11:27:27) [GCC 13.2.0]
numpy 1.25.1  scipy 1.10.1
Date: Fri Jan 19 11:39:56 2024
PySCF version 2.0.1
PySCF path  /burg/berkelbach/users/eav2136/builds/pyscf/projected-cvs/pyscf
GIT ORIG_HEAD 0bfbc692adf3ea63b8a509210433219cd1c472a2
GIT HEAD (branch projected-cvs) e14caaa2dddc538b9be2d86f01e5b456fc92da36

[ENV] PYSCF_TMPDIR /burg/ccce/users/eav2136/projects/batteries/01_mp2/tmp
[ENV] PYSCF_MAX_MEMORY 700000
[CONFIG] DEBUG = False
[CONFIG] MAX_MEMORY = 700000
[CONFIG] TMPDIR = /burg/ccce/users/eav2136/projects/batteries/01_mp2/tmp
[CONFIG] UNIT = angstrom
[CONFIG] VERBOSE = 3
[CONFIG] conf_file = None
[INPUT] verbose = 10
[INPUT] max_memory = 700000 
[INPUT] num. atoms = 34
[INPUT] num. electrons = 118
[INPUT] charge = 0
[INPUT] spin (= nelec alpha-beta = 2S) = 0
[INPUT] symmetry False subgroup None
[INPUT] Mole.unit = ANG
[INPUT]  1 C      4.889700000000   4.599650000000  10.258310000000 AA    9.240193831286   8.692078768856  19.385396400887 Bohr
[INPUT]  2 O      4.870170000000   4.245790000000   8.952570000000 AA    9.203287480073   8.023380282417  16.917905410997 Bohr
[INPUT]  3 C      5.310840000000   5.193710000000   8.233300000000 AA   10.036033091385   9.814689470415  15.558682101382 Bohr
[INPUT]  4 O      5.765780000000   6.111200000000   8.982240000000 AA   10.895745094495  11.548494292442  16.973973585113 Bohr
[INPUT]  5 C      5.774150000000   5.702340000000  10.272330000000 AA   10.911562102157  10.775860869152  19.411890361153 Bohr
[INPUT]  6 O      5.299720000000   5.216150000000   7.112960000000 AA   10.015019336880   9.857094924650  13.441546334986 Bohr
[INPUT]  7 H      5.212360000000   3.798320000000  10.814180000000 AA    9.849932862638   7.177784533458  20.435838461749 Bohr
[INPUT]  8 H      3.953110000000   4.871240000000  10.548100000000 AA    7.470295240279   9.205309487026  19.933020134525 Bohr
[INPUT]  9 H      5.464720000000   6.479910000000  10.867980000000 AA   10.326824147433  12.245255211830  20.537505727251 Bohr
[INPUT] 10 H      6.716790000000   5.418990000000  10.529430000000 AA   12.692893536217  10.240406971757  19.897738947779 Bohr
[INPUT] 11 Li     5.263950000000   5.263950000000   5.263950000000 AA    9.947423833404   9.947423833404   9.947423833404 Bohr
[INPUT] 12 Li     5.263950000000   1.754650000000   5.263950000000 AA    9.947423833404   3.315807944468   9.947423833404 Bohr
[INPUT] 13 Li     8.773250000000   5.263950000000   5.263950000000 AA   16.579039722340   9.947423833404   9.947423833404 Bohr
[INPUT] 14 Li     1.754650000000   5.263950000000   5.263950000000 AA    3.315807944468   9.947423833404   9.947423833404 Bohr
[INPUT] 15 Li     5.263950000000   8.773250000000   5.263950000000 AA    9.947423833404  16.579039722340   9.947423833404 Bohr
[INPUT] 16 Li     7.018600000000   3.509300000000   3.509300000000 AA   13.263231777872   6.631615888936   6.631615888936 Bohr
[INPUT] 17 Li     3.509300000000   3.509300000000   3.509300000000 AA    6.631615888936   6.631615888936   6.631615888936 Bohr
[INPUT] 18 Li     7.018600000000   7.018600000000   3.509300000000 AA   13.263231777872  13.263231777872   6.631615888936 Bohr
[INPUT] 19 Li     3.509300000000   7.018600000000   3.509300000000 AA    6.631615888936  13.263231777872   6.631615888936 Bohr
[INPUT] 20 Li     8.773250000000   1.754650000000   5.263950000000 AA   16.579039722340   3.315807944468   9.947423833404 Bohr
[INPUT] 21 Li     1.754650000000   1.754650000000   5.263950000000 AA    3.315807944468   3.315807944468   9.947423833404 Bohr
[INPUT] 22 Li     8.773250000000   8.773250000000   5.263950000000 AA   16.579039722340  16.579039722340   9.947423833404 Bohr
[INPUT] 23 Li     1.754650000000   8.773250000000   5.263950000000 AA    3.315807944468  16.579039722340   9.947423833404 Bohr
[INPUT] 24 Li     5.263950000000   5.263950000000   1.754650000000 AA    9.947423833404   9.947423833404   3.315807944468 Bohr
[INPUT] 25 Li     5.263950000000   1.754650000000   1.754650000000 AA    9.947423833404   3.315807944468   3.315807944468 Bohr
[INPUT] 26 Li     8.773250000000   5.263950000000   1.754650000000 AA   16.579039722340   9.947423833404   3.315807944468 Bohr
[INPUT] 27 Li     1.754650000000   5.263950000000   1.754650000000 AA    3.315807944468   9.947423833404   3.315807944468 Bohr
[INPUT] 28 Li     5.263950000000   8.773250000000   1.754650000000 AA    9.947423833404  16.579039722340   3.315807944468 Bohr
[INPUT] 29 Li     7.018600000000   0.000000000000   3.509300000000 AA   13.263231777872   0.000000000000   6.631615888936 Bohr
[INPUT] 30 Li     3.509300000000   0.000000000000   3.509300000000 AA    6.631615888936   0.000000000000   6.631615888936 Bohr
[INPUT] 31 Li     0.000000000000   3.509300000000   3.509300000000 AA    0.000000000000   6.631615888936   6.631615888936 Bohr
[INPUT] 32 Li     0.000000000000   7.018600000000   3.509300000000 AA    0.000000000000  13.263231777872   6.631615888936 Bohr
[INPUT] 33 Li     8.773250000000   1.754650000000   1.754650000000 AA   16.579039722340   3.315807944468   3.315807944468 Bohr
[INPUT] 34 Li     1.754650000000   1.754650000000   1.754650000000 AA    3.315807944468   3.315807944468   3.315807944468 Bohr
[INPUT] ---------------- BASIS SET ---------------- 
[INPUT] l, kappa, [nprim/nctr], expnt,             c_1 c_2 ...
[INPUT] H
[INPUT] 0    0    [3    /1   ]  33.87             0.006068
                                5.095             0.045308
                                1.159             0.202822
[INPUT] 0    0    [1    /1   ]  0.3258               1
[INPUT] 0    0    [1    /1   ]  0.1027               1
[INPUT] 1    0    [1    /1   ]  1.407                1
[INPUT] 1    0    [1    /1   ]  0.388                1
[INPUT] 2    0    [1    /1   ]  1.057                1
[INPUT] Li
[INPUT] 0    0    [9    /2   ]  5988              0.000133 -2.1e-05
                                898.9             0.001025 -0.000161
                                205.9             0.005272 -0.00082
                                59.24             0.020929 -0.003326
                                19.87             0.06634 -0.010519
                                7.406             0.165775 -0.028097
                                2.93              0.315038 -0.055936
                                1.189             0.393523 -0.099237
                                0.4798            0.19087 -0.112189
[INPUT] 0    0    [1    /1   ]  0.07509              1
[INPUT] 0    0    [1    /1   ]  0.02832              1
[INPUT] 1    0    [3    /1   ]  3.266             0.00863
                                0.6511            0.047538
                                0.1696            0.209772
[INPUT] 1    0    [1    /1   ]  0.05578              1
[INPUT] 1    0    [1    /1   ]  0.0205               1
[INPUT] 2    0    [1    /1   ]  0.1874               1
[INPUT] 2    0    [1    /1   ]  0.0801               1
[INPUT] 3    0    [1    /1   ]  0.1829               1
[INPUT] O
[INPUT] 0    0    [8    /2   ]  15330             0.000508 -0.000115
                                2299              0.003929 -0.000895
                                522.4             0.020243 -0.004636
                                147.3             0.079181 -0.018724
                                47.55             0.230687 -0.058463
                                16.76             0.433118 -0.136463
                                6.207             0.35026 -0.17574
                                0.6882            -0.008154 0.603418
[INPUT] 0    0    [1    /1   ]  1.752                1
[INPUT] 0    0    [1    /1   ]  0.2384               1
[INPUT] 1    0    [3    /1   ]  34.46             0.015928
                                7.749             0.09974
                                2.28              0.310492
[INPUT] 1    0    [1    /1   ]  0.7156               1
[INPUT] 1    0    [1    /1   ]  0.214                1
[INPUT] 2    0    [1    /1   ]  2.314                1
[INPUT] 2    0    [1    /1   ]  0.645                1
[INPUT] 3    0    [1    /1   ]  1.428                1
[INPUT] C
[INPUT] 0    0    [8    /2   ]  8236              0.000531 -0.000113
                                1235              0.004108 -0.000878
                                280.8             0.021087 -0.00454
                                79.27             0.081853 -0.018133
                                25.59             0.234817 -0.05576
                                8.997             0.434401 -0.126895
                                3.319             0.346129 -0.170352
                                0.3643            -0.008983 0.598684
[INPUT] 0    0    [1    /1   ]  0.9059               1
[INPUT] 0    0    [1    /1   ]  0.1285               1
[INPUT] 1    0    [3    /1   ]  18.71             0.014031
                                4.133             0.086866
                                1.2               0.290216
[INPUT] 1    0    [1    /1   ]  0.3827               1
[INPUT] 1    0    [1    /1   ]  0.1209               1
[INPUT] 2    0    [1    /1   ]  1.097                1
[INPUT] 2    0    [1    /1   ]  0.318                1
[INPUT] 3    0    [1    /1   ]  0.761                1

nuclear repulsion = 802.80827885005
number of shells = 294
number of NR pGTOs = 1348
number of NR cGTOs = 956
basis = ccpvtz
ecp = {}
bas 0, expnt(s) = [8.236e+03 1.235e+03 2.808e+02 7.927e+01 2.559e+01 8.997e+00 3.319e+00
 3.643e-01]
bas 1, expnt(s) = [0.9059]
bas 2, expnt(s) = [0.1285]
bas 3, expnt(s) = [18.71   4.133  1.2  ]
bas 4, expnt(s) = [0.3827]
bas 5, expnt(s) = [0.1209]
bas 6, expnt(s) = [1.097]
bas 7, expnt(s) = [0.318]
bas 8, expnt(s) = [0.761]
bas 9, expnt(s) = [1.533e+04 2.299e+03 5.224e+02 1.473e+02 4.755e+01 1.676e+01 6.207e+00
 6.882e-01]
bas 10, expnt(s) = [1.752]
bas 11, expnt(s) = [0.2384]
bas 12, expnt(s) = [34.46   7.749  2.28 ]
bas 13, expnt(s) = [0.7156]
bas 14, expnt(s) = [0.214]
bas 15, expnt(s) = [2.314]
bas 16, expnt(s) = [0.645]
bas 17, expnt(s) = [1.428]
bas 18, expnt(s) = [8.236e+03 1.235e+03 2.808e+02 7.927e+01 2.559e+01 8.997e+00 3.319e+00
 3.643e-01]
bas 19, expnt(s) = [0.9059]
bas 20, expnt(s) = [0.1285]
bas 21, expnt(s) = [18.71   4.133  1.2  ]
bas 22, expnt(s) = [0.3827]
bas 23, expnt(s) = [0.1209]
bas 24, expnt(s) = [1.097]
bas 25, expnt(s) = [0.318]
bas 26, expnt(s) = [0.761]
bas 27, expnt(s) = [1.533e+04 2.299e+03 5.224e+02 1.473e+02 4.755e+01 1.676e+01 6.207e+00
 6.882e-01]
bas 28, expnt(s) = [1.752]
bas 29, expnt(s) = [0.2384]
bas 30, expnt(s) = [34.46   7.749  2.28 ]
bas 31, expnt(s) = [0.7156]
bas 32, expnt(s) = [0.214]
bas 33, expnt(s) = [2.314]
bas 34, expnt(s) = [0.645]
bas 35, expnt(s) = [1.428]
bas 36, expnt(s) = [8.236e+03 1.235e+03 2.808e+02 7.927e+01 2.559e+01 8.997e+00 3.319e+00
 3.643e-01]
bas 37, expnt(s) = [0.9059]
bas 38, expnt(s) = [0.1285]
bas 39, expnt(s) = [18.71   4.133  1.2  ]
bas 40, expnt(s) = [0.3827]
bas 41, expnt(s) = [0.1209]
bas 42, expnt(s) = [1.097]
bas 43, expnt(s) = [0.318]
bas 44, expnt(s) = [0.761]
bas 45, expnt(s) = [1.533e+04 2.299e+03 5.224e+02 1.473e+02 4.755e+01 1.676e+01 6.207e+00
 6.882e-01]
bas 46, expnt(s) = [1.752]
bas 47, expnt(s) = [0.2384]
bas 48, expnt(s) = [34.46   7.749  2.28 ]
bas 49, expnt(s) = [0.7156]
bas 50, expnt(s) = [0.214]
bas 51, expnt(s) = [2.314]
bas 52, expnt(s) = [0.645]
bas 53, expnt(s) = [1.428]
bas 54, expnt(s) = [33.87   5.095  1.159]
bas 55, expnt(s) = [0.3258]
bas 56, expnt(s) = [0.1027]
bas 57, expnt(s) = [1.407]
bas 58, expnt(s) = [0.388]
bas 59, expnt(s) = [1.057]
bas 60, expnt(s) = [33.87   5.095  1.159]
bas 61, expnt(s) = [0.3258]
bas 62, expnt(s) = [0.1027]
bas 63, expnt(s) = [1.407]
bas 64, expnt(s) = [0.388]
bas 65, expnt(s) = [1.057]
bas 66, expnt(s) = [33.87   5.095  1.159]
bas 67, expnt(s) = [0.3258]
bas 68, expnt(s) = [0.1027]
bas 69, expnt(s) = [1.407]
bas 70, expnt(s) = [0.388]
bas 71, expnt(s) = [1.057]
bas 72, expnt(s) = [33.87   5.095  1.159]
bas 73, expnt(s) = [0.3258]
bas 74, expnt(s) = [0.1027]
bas 75, expnt(s) = [1.407]
bas 76, expnt(s) = [0.388]
bas 77, expnt(s) = [1.057]
bas 78, expnt(s) = [5.988e+03 8.989e+02 2.059e+02 5.924e+01 1.987e+01 7.406e+00 2.930e+00
 1.189e+00 4.798e-01]
bas 79, expnt(s) = [0.07509]
bas 80, expnt(s) = [0.02832]
bas 81, expnt(s) = [3.266  0.6511 0.1696]
bas 82, expnt(s) = [0.05578]
bas 83, expnt(s) = [0.0205]
bas 84, expnt(s) = [0.1874]
bas 85, expnt(s) = [0.0801]
bas 86, expnt(s) = [0.1829]
bas 87, expnt(s) = [5.988e+03 8.989e+02 2.059e+02 5.924e+01 1.987e+01 7.406e+00 2.930e+00
 1.189e+00 4.798e-01]
bas 88, expnt(s) = [0.07509]
bas 89, expnt(s) = [0.02832]
bas 90, expnt(s) = [3.266  0.6511 0.1696]
bas 91, expnt(s) = [0.05578]
bas 92, expnt(s) = [0.0205]
bas 93, expnt(s) = [0.1874]
bas 94, expnt(s) = [0.0801]
bas 95, expnt(s) = [0.1829]
bas 96, expnt(s) = [5.988e+03 8.989e+02 2.059e+02 5.924e+01 1.987e+01 7.406e+00 2.930e+00
 1.189e+00 4.798e-01]
bas 97, expnt(s) = [0.07509]
bas 98, expnt(s) = [0.02832]
bas 99, expnt(s) = [3.266  0.6511 0.1696]
bas 100, expnt(s) = [0.05578]
bas 101, expnt(s) = [0.0205]
bas 102, expnt(s) = [0.1874]
bas 103, expnt(s) = [0.0801]
bas 104, expnt(s) = [0.1829]
bas 105, expnt(s) = [5.988e+03 8.989e+02 2.059e+02 5.924e+01 1.987e+01 7.406e+00 2.930e+00
 1.189e+00 4.798e-01]
bas 106, expnt(s) = [0.07509]
bas 107, expnt(s) = [0.02832]
bas 108, expnt(s) = [3.266  0.6511 0.1696]
bas 109, expnt(s) = [0.05578]
bas 110, expnt(s) = [0.0205]
bas 111, expnt(s) = [0.1874]
bas 112, expnt(s) = [0.0801]
bas 113, expnt(s) = [0.1829]
bas 114, expnt(s) = [5.988e+03 8.989e+02 2.059e+02 5.924e+01 1.987e+01 7.406e+00 2.930e+00
 1.189e+00 4.798e-01]
bas 115, expnt(s) = [0.07509]
bas 116, expnt(s) = [0.02832]
bas 117, expnt(s) = [3.266  0.6511 0.1696]
bas 118, expnt(s) = [0.05578]
bas 119, expnt(s) = [0.0205]
bas 120, expnt(s) = [0.1874]
bas 121, expnt(s) = [0.0801]
bas 122, expnt(s) = [0.1829]
bas 123, expnt(s) = [5.988e+03 8.989e+02 2.059e+02 5.924e+01 1.987e+01 7.406e+00 2.930e+00
 1.189e+00 4.798e-01]
bas 124, expnt(s) = [0.07509]
bas 125, expnt(s) = [0.02832]
bas 126, expnt(s) = [3.266  0.6511 0.1696]
bas 127, expnt(s) = [0.05578]
bas 128, expnt(s) = [0.0205]
bas 129, expnt(s) = [0.1874]
bas 130, expnt(s) = [0.0801]
bas 131, expnt(s) = [0.1829]
bas 132, expnt(s) = [5.988e+03 8.989e+02 2.059e+02 5.924e+01 1.987e+01 7.406e+00 2.930e+00
 1.189e+00 4.798e-01]
bas 133, expnt(s) = [0.07509]
bas 134, expnt(s) = [0.02832]
bas 135, expnt(s) = [3.266  0.6511 0.1696]
bas 136, expnt(s) = [0.05578]
bas 137, expnt(s) = [0.0205]
bas 138, expnt(s) = [0.1874]
bas 139, expnt(s) = [0.0801]
bas 140, expnt(s) = [0.1829]
bas 141, expnt(s) = [5.988e+03 8.989e+02 2.059e+02 5.924e+01 1.987e+01 7.406e+00 2.930e+00
 1.189e+00 4.798e-01]
bas 142, expnt(s) = [0.07509]
bas 143, expnt(s) = [0.02832]
bas 144, expnt(s) = [3.266  0.6511 0.1696]
bas 145, expnt(s) = [0.05578]
bas 146, expnt(s) = [0.0205]
bas 147, expnt(s) = [0.1874]
bas 148, expnt(s) = [0.0801]
bas 149, expnt(s) = [0.1829]
bas 150, expnt(s) = [5.988e+03 8.989e+02 2.059e+02 5.924e+01 1.987e+01 7.406e+00 2.930e+00
 1.189e+00 4.798e-01]
bas 151, expnt(s) = [0.07509]
bas 152, expnt(s) = [0.02832]
bas 153, expnt(s) = [3.266  0.6511 0.1696]
bas 154, expnt(s) = [0.05578]
bas 155, expnt(s) = [0.0205]
bas 156, expnt(s) = [0.1874]
bas 157, expnt(s) = [0.0801]
bas 158, expnt(s) = [0.1829]
bas 159, expnt(s) = [5.988e+03 8.989e+02 2.059e+02 5.924e+01 1.987e+01 7.406e+00 2.930e+00
 1.189e+00 4.798e-01]
bas 160, expnt(s) = [0.07509]
bas 161, expnt(s) = [0.02832]
bas 162, expnt(s) = [3.266  0.6511 0.1696]
bas 163, expnt(s) = [0.05578]
bas 164, expnt(s) = [0.0205]
bas 165, expnt(s) = [0.1874]
bas 166, expnt(s) = [0.0801]
bas 167, expnt(s) = [0.1829]
bas 168, expnt(s) = [5.988e+03 8.989e+02 2.059e+02 5.924e+01 1.987e+01 7.406e+00 2.930e+00
 1.189e+00 4.798e-01]
bas 169, expnt(s) = [0.07509]
bas 170, expnt(s) = [0.02832]
bas 171, expnt(s) = [3.266  0.6511 0.1696]
bas 172, expnt(s) = [0.05578]
bas 173, expnt(s) = [0.0205]
bas 174, expnt(s) = [0.1874]
bas 175, expnt(s) = [0.0801]
bas 176, expnt(s) = [0.1829]
bas 177, expnt(s) = [5.988e+03 8.989e+02 2.059e+02 5.924e+01 1.987e+01 7.406e+00 2.930e+00
 1.189e+00 4.798e-01]
bas 178, expnt(s) = [0.07509]
bas 179, expnt(s) = [0.02832]
bas 180, expnt(s) = [3.266  0.6511 0.1696]
bas 181, expnt(s) = [0.05578]
bas 182, expnt(s) = [0.0205]
bas 183, expnt(s) = [0.1874]
bas 184, expnt(s) = [0.0801]
bas 185, expnt(s) = [0.1829]
bas 186, expnt(s) = [5.988e+03 8.989e+02 2.059e+02 5.924e+01 1.987e+01 7.406e+00 2.930e+00
 1.189e+00 4.798e-01]
bas 187, expnt(s) = [0.07509]
bas 188, expnt(s) = [0.02832]
bas 189, expnt(s) = [3.266  0.6511 0.1696]
bas 190, expnt(s) = [0.05578]
bas 191, expnt(s) = [0.0205]
bas 192, expnt(s) = [0.1874]
bas 193, expnt(s) = [0.0801]
bas 194, expnt(s) = [0.1829]
bas 195, expnt(s) = [5.988e+03 8.989e+02 2.059e+02 5.924e+01 1.987e+01 7.406e+00 2.930e+00
 1.189e+00 4.798e-01]
bas 196, expnt(s) = [0.07509]
bas 197, expnt(s) = [0.02832]
bas 198, expnt(s) = [3.266  0.6511 0.1696]
bas 199, expnt(s) = [0.05578]
bas 200, expnt(s) = [0.0205]
bas 201, expnt(s) = [0.1874]
bas 202, expnt(s) = [0.0801]
bas 203, expnt(s) = [0.1829]
bas 204, expnt(s) = [5.988e+03 8.989e+02 2.059e+02 5.924e+01 1.987e+01 7.406e+00 2.930e+00
 1.189e+00 4.798e-01]
bas 205, expnt(s) = [0.07509]
bas 206, expnt(s) = [0.02832]
bas 207, expnt(s) = [3.266  0.6511 0.1696]
bas 208, expnt(s) = [0.05578]
bas 209, expnt(s) = [0.0205]
bas 210, expnt(s) = [0.1874]
bas 211, expnt(s) = [0.0801]
bas 212, expnt(s) = [0.1829]
bas 213, expnt(s) = [5.988e+03 8.989e+02 2.059e+02 5.924e+01 1.987e+01 7.406e+00 2.930e+00
 1.189e+00 4.798e-01]
bas 214, expnt(s) = [0.07509]
bas 215, expnt(s) = [0.02832]
bas 216, expnt(s) = [3.266  0.6511 0.1696]
bas 217, expnt(s) = [0.05578]
bas 218, expnt(s) = [0.0205]
bas 219, expnt(s) = [0.1874]
bas 220, expnt(s) = [0.0801]
bas 221, expnt(s) = [0.1829]
bas 222, expnt(s) = [5.988e+03 8.989e+02 2.059e+02 5.924e+01 1.987e+01 7.406e+00 2.930e+00
 1.189e+00 4.798e-01]
bas 223, expnt(s) = [0.07509]
bas 224, expnt(s) = [0.02832]
bas 225, expnt(s) = [3.266  0.6511 0.1696]
bas 226, expnt(s) = [0.05578]
bas 227, expnt(s) = [0.0205]
bas 228, expnt(s) = [0.1874]
bas 229, expnt(s) = [0.0801]
bas 230, expnt(s) = [0.1829]
bas 231, expnt(s) = [5.988e+03 8.989e+02 2.059e+02 5.924e+01 1.987e+01 7.406e+00 2.930e+00
 1.189e+00 4.798e-01]
bas 232, expnt(s) = [0.07509]
bas 233, expnt(s) = [0.02832]
bas 234, expnt(s) = [3.266  0.6511 0.1696]
bas 235, expnt(s) = [0.05578]
bas 236, expnt(s) = [0.0205]
bas 237, expnt(s) = [0.1874]
bas 238, expnt(s) = [0.0801]
bas 239, expnt(s) = [0.1829]
bas 240, expnt(s) = [5.988e+03 8.989e+02 2.059e+02 5.924e+01 1.987e+01 7.406e+00 2.930e+00
 1.189e+00 4.798e-01]
bas 241, expnt(s) = [0.07509]
bas 242, expnt(s) = [0.02832]
bas 243, expnt(s) = [3.266  0.6511 0.1696]
bas 244, expnt(s) = [0.05578]
bas 245, expnt(s) = [0.0205]
bas 246, expnt(s) = [0.1874]
bas 247, expnt(s) = [0.0801]
bas 248, expnt(s) = [0.1829]
bas 249, expnt(s) = [5.988e+03 8.989e+02 2.059e+02 5.924e+01 1.987e+01 7.406e+00 2.930e+00
 1.189e+00 4.798e-01]
bas 250, expnt(s) = [0.07509]
bas 251, expnt(s) = [0.02832]
bas 252, expnt(s) = [3.266  0.6511 0.1696]
bas 253, expnt(s) = [0.05578]
bas 254, expnt(s) = [0.0205]
bas 255, expnt(s) = [0.1874]
bas 256, expnt(s) = [0.0801]
bas 257, expnt(s) = [0.1829]
bas 258, expnt(s) = [5.988e+03 8.989e+02 2.059e+02 5.924e+01 1.987e+01 7.406e+00 2.930e+00
 1.189e+00 4.798e-01]
bas 259, expnt(s) = [0.07509]
bas 260, expnt(s) = [0.02832]
bas 261, expnt(s) = [3.266  0.6511 0.1696]
bas 262, expnt(s) = [0.05578]
bas 263, expnt(s) = [0.0205]
bas 264, expnt(s) = [0.1874]
bas 265, expnt(s) = [0.0801]
bas 266, expnt(s) = [0.1829]
bas 267, expnt(s) = [5.988e+03 8.989e+02 2.059e+02 5.924e+01 1.987e+01 7.406e+00 2.930e+00
 1.189e+00 4.798e-01]
bas 268, expnt(s) = [0.07509]
bas 269, expnt(s) = [0.02832]
bas 270, expnt(s) = [3.266  0.6511 0.1696]
bas 271, expnt(s) = [0.05578]
bas 272, expnt(s) = [0.0205]
bas 273, expnt(s) = [0.1874]
bas 274, expnt(s) = [0.0801]
bas 275, expnt(s) = [0.1829]
bas 276, expnt(s) = [5.988e+03 8.989e+02 2.059e+02 5.924e+01 1.987e+01 7.406e+00 2.930e+00
 1.189e+00 4.798e-01]
bas 277, expnt(s) = [0.07509]
bas 278, expnt(s) = [0.02832]
bas 279, expnt(s) = [3.266  0.6511 0.1696]
bas 280, expnt(s) = [0.05578]
bas 281, expnt(s) = [0.0205]
bas 282, expnt(s) = [0.1874]
bas 283, expnt(s) = [0.0801]
bas 284, expnt(s) = [0.1829]
bas 285, expnt(s) = [5.988e+03 8.989e+02 2.059e+02 5.924e+01 1.987e+01 7.406e+00 2.930e+00
 1.189e+00 4.798e-01]
bas 286, expnt(s) = [0.07509]
bas 287, expnt(s) = [0.02832]
bas 288, expnt(s) = [3.266  0.6511 0.1696]
bas 289, expnt(s) = [0.05578]
bas 290, expnt(s) = [0.0205]
bas 291, expnt(s) = [0.1874]
bas 292, expnt(s) = [0.0801]
bas 293, expnt(s) = [0.1829]
CPU time:         0.66
arg.atm = [[  6  20   1  23   0   0]
 [  8  24   1  27   0   0]
 [  6  28   1  31   0   0]
 [  8  32   1  35   0   0]
 [  6  36   1  39   0   0]
 [  8  40   1  43   0   0]
 [  1  44   1  47   0   0]
 [  1  48   1  51   0   0]
 [  1  52   1  55   0   0]
 [  1  56   1  59   0   0]
 [  3  60   1  63   0   0]
 [  3  64   1  67   0   0]
 [  3  68   1  71   0   0]
 [  3  72   1  75   0   0]
 [  3  76   1  79   0   0]
 [  3  80   1  83   0   0]
 [  3  84   1  87   0   0]
 [  3  88   1  91   0   0]
 [  3  92   1  95   0   0]
 [  3  96   1  99   0   0]
 [  3 100   1 103   0   0]
 [  3 104   1 107   0   0]
 [  3 108   1 111   0   0]
 [  3 112   1 115   0   0]
 [  3 116   1 119   0   0]
 [  3 120   1 123   0   0]
 [  3 124   1 127   0   0]
 [  3 128   1 131   0   0]
 [  3 132   1 135   0   0]
 [  3 136   1 139   0   0]
 [  3 140   1 143   0   0]
 [  3 144   1 147   0   0]
 [  3 148   1 151   0   0]
 [  3 152   1 155   0   0]]
arg.bas = [[  0   0   8 ... 263 271   0]
 [  0   0   1 ... 287 288   0]
 [  0   0   1 ... 289 290   0]
 ...
 [ 33   2   1 ... 213 214   0]
 [ 33   2   1 ... 215 216   0]
 [ 33   3   1 ... 217 218   0]]
arg.env = [ 0.00000000e+00  0.00000000e+00  0.00000000e+00  0.00000000e+00
  0.00000000e+00  0.00000000e+00  0.00000000e+00  0.00000000e+00
  0.00000000e+00  0.00000000e+00  0.00000000e+00  0.00000000e+00
  0.00000000e+00  0.00000000e+00  0.00000000e+00  0.00000000e+00
  0.00000000e+00  0.00000000e+00  0.00000000e+00  0.00000000e+00
  9.24019383e+00  8.69207877e+00  1.93853964e+01  0.00000000e+00
  9.20328748e+00  8.02338028e+00  1.69179054e+01  0.00000000e+00
  1.00360331e+01  9.81468947e+00  1.55586821e+01  0.00000000e+00
  1.08957451e+01  1.15484943e+01  1.69739736e+01  0.00000000e+00
  1.09115621e+01  1.07758609e+01  1.94118904e+01  0.00000000e+00
  1.00150193e+01  9.85709492e+00  1.34415463e+01  0.00000000e+00
  9.84993286e+00  7.17778453e+00  2.04358385e+01  0.00000000e+00
  7.47029524e+00  9.20530949e+00  1.99330201e+01  0.00000000e+00
  1.03268241e+01  1.22452552e+01  2.05375057e+01  0.00000000e+00
  1.26928935e+01  1.02404070e+01  1.98977389e+01  0.00000000e+00
  9.94742383e+00  9.94742383e+00  9.94742383e+00  0.00000000e+00
  9.94742383e+00  3.31580794e+00  9.94742383e+00  0.00000000e+00
  1.65790397e+01  9.94742383e+00  9.94742383e+00  0.00000000e+00
  3.31580794e+00  9.94742383e+00  9.94742383e+00  0.00000000e+00
  9.94742383e+00  1.65790397e+01  9.94742383e+00  0.00000000e+00
  1.32632318e+01  6.63161589e+00  6.63161589e+00  0.00000000e+00
  6.63161589e+00  6.63161589e+00  6.63161589e+00  0.00000000e+00
  1.32632318e+01  1.32632318e+01  6.63161589e+00  0.00000000e+00
  6.63161589e+00  1.32632318e+01  6.63161589e+00  0.00000000e+00
  1.65790397e+01  3.31580794e+00  9.94742383e+00  0.00000000e+00
  3.31580794e+00  3.31580794e+00  9.94742383e+00  0.00000000e+00
  1.65790397e+01  1.65790397e+01  9.94742383e+00  0.00000000e+00
  3.31580794e+00  1.65790397e+01  9.94742383e+00  0.00000000e+00
  9.94742383e+00  9.94742383e+00  3.31580794e+00  0.00000000e+00
  9.94742383e+00  3.31580794e+00  3.31580794e+00  0.00000000e+00
  1.65790397e+01  9.94742383e+00  3.31580794e+00  0.00000000e+00
  3.31580794e+00  9.94742383e+00  3.31580794e+00  0.00000000e+00
  9.94742383e+00  1.65790397e+01  3.31580794e+00  0.00000000e+00
  1.32632318e+01  0.00000000e+00  6.63161589e+00  0.00000000e+00
  6.63161589e+00  0.00000000e+00  6.63161589e+00  0.00000000e+00
  0.00000000e+00  6.63161589e+00  6.63161589e+00  0.00000000e+00
  0.00000000e+00  1.32632318e+01  6.63161589e+00  0.00000000e+00
  1.65790397e+01  3.31580794e+00  3.31580794e+00  0.00000000e+00
  3.31580794e+00  3.31580794e+00  3.31580794e+00  0.00000000e+00
  3.38700000e+01  5.09500000e+00  1.15900000e+00  9.04334519e-01
  1.63100455e+00  2.40491525e+00  3.25800000e-01  1.08950276e+00
  1.02700000e-01  4.58345379e-01  1.40700000e+00  4.47045795e+00
  3.88000000e-01  8.93354953e-01  1.05700000e+00  2.87515071e+00
  5.98800000e+03  8.98900000e+02  2.05900000e+02  5.92400000e+01
  1.98700000e+01  7.40600000e+00  2.93000000e+00  1.18900000e+00
  4.79800000e-01  2.29069316e-01  4.25756548e-01  7.25056076e-01
  1.13074246e+00  1.57971158e+00  1.88304523e+00  1.78512072e+00
  1.13373211e+00  2.78411257e-01 -1.33552750e-01 -2.46934407e-01
 -4.16416863e-01 -6.63522613e-01 -9.24900580e-01 -1.17847379e+00
 -1.17034612e+00 -1.05567981e+00 -6.04251387e-01  7.50900000e-02
  3.62411193e-01  2.83200000e-02  1.74415453e-01  3.26600000e+00
  6.51100000e-01  1.69600000e-01  4.55280795e-01  3.34078737e-01
  2.74333054e-01  5.57800000e-02  7.90828897e-02  2.05000000e-02
  2.26295917e-02  1.87400000e-01  1.39275961e-01  8.01000000e-02
  3.14692425e-02  1.82900000e-01  4.31510332e-02  1.53300000e+04
  2.29900000e+03  5.22400000e+02  1.47300000e+02  4.75500000e+01
  1.67600000e+01  6.20700000e+00  6.88200000e-01  1.81067529e+00
  3.37486577e+00  5.72265412e+00  8.66150357e+00  1.08070276e+01
  9.28179538e+00  3.56346173e+00 -1.59395830e-02 -6.86527364e-01
 -1.28759909e+00 -2.19507417e+00 -3.43047366e+00 -4.58719692e+00
 -4.89805685e+00 -2.99457591e+00  1.97563931e+00  1.75200000e+00
  3.84738459e+00  2.38400000e-01  8.61975084e-01  3.44600000e+01
  7.74900000e+00  2.28000000e+00  1.00262994e+01  9.72213774e+00
  6.55849668e+00  7.15600000e-01  1.92009319e+00  2.14000000e-01
  4.24621137e-01  2.31400000e+00  1.13283134e+01  6.45000000e-01
  1.21132000e+00  1.42800000e+00  4.39692268e+00  8.23600000e+03
  1.23500000e+03  2.80800000e+02  7.92700000e+01  2.55900000e+01
  8.99700000e+00  3.31900000e+00  3.64300000e-01  1.18480296e+00
  2.20874210e+00  3.73316324e+00  5.61216719e+00  6.89519583e+00
  5.82409515e+00  2.19663441e+00 -1.08712663e-02 -4.28969670e-01
 -8.03166571e-01 -1.36745981e+00 -2.11525239e+00 -2.78571299e+00
 -2.89453423e+00 -1.83934657e+00  1.23268730e+00  9.05900000e-01
  2.34598494e+00  1.28500000e-01  5.42241022e-01  1.87100000e+01
  4.13300000e+00  1.20000000e+00  4.47572721e+00  4.19627876e+00
  2.98800046e+00  3.82700000e-01  8.78127282e-01  1.20900000e-01
  2.07977938e-01  1.09700000e+00  3.06825171e+00  3.18000000e-01
  3.51379844e-01  7.61000000e-01  1.06690522e+00]
ecpbas  = []


******** <class 'pyscf.scf.hf.RHF'> ********
method = RHF
initial guess = minao
damping factor = 0
level_shift factor = 0
DIIS = <class 'pyscf.scf.diis.CDIIS'>
diis_start_cycle = 1
diis_space = 8
SCF conv_tol = 1e-09
SCF conv_tol_grad = None
SCF max_cycles = 50
direct_scf = True
direct_scf_tol = 1e-13
chkfile to save SCF result = /burg/ccce/users/eav2136/projects/batteries/01_mp2/tmp/tmp1b2g2z_1
max_memory 700000 MB (current use 95 MB)
Set gradient conv threshold to 3.16228e-05
Nelec from initial guess = 117.99828432652427
    CPU time for vj and vk   2563.25 sec, wall time     80.97 sec
E1 = -2296.5585636517176  E_coul = 970.0044916001586
init E= -523.745793201509
cond(S) = 11765195.254851859
    CPU time for initialize scf   2575.15 sec, wall time     81.53 sec
  HOMO = -0.0986107581463456  LUMO = -0.0928391599263975
  mo_energy =
[-2.08435663e+01 -2.07936097e+01 -2.07926155e+01 -1.13785690e+01
 -1.13528336e+01 -1.13477131e+01 -2.52684737e+00 -2.52101989e+00
 -2.51741121e+00 -2.51421587e+00 -2.51310147e+00 -2.50668342e+00
 -2.50485414e+00 -2.50426682e+00 -2.50285541e+00 -2.50164656e+00
 -2.50020054e+00 -2.49971651e+00 -2.49924495e+00 -2.49725984e+00
 -2.49629615e+00 -2.49497740e+00 -2.49460662e+00 -2.49388324e+00
 -2.49264496e+00 -2.49206193e+00 -2.49171002e+00 -2.49058465e+00
 -2.49017389e+00 -2.48554942e+00 -2.16878843e+00 -1.79613724e+00
 -1.65779860e+00 -1.33706903e+00 -1.05210135e+00 -9.01368401e-01
 -8.03095489e-01 -7.85457216e-01 -6.88639822e-01 -6.64639564e-01
 -6.21441673e-01 -5.80774519e-01 -5.69722296e-01 -5.00318915e-01
 -4.94122577e-01 -4.38163818e-01 -4.04069979e-01 -3.99470951e-01
 -3.88993795e-01 -3.24605867e-01 -2.53274143e-01 -2.30717561e-01
 -2.26462465e-01 -2.06033505e-01 -1.48481982e-01 -1.43355580e-01
 -1.29278641e-01 -1.17508366e-01 -9.86107581e-02 -9.28391599e-02
 -5.98801895e-02 -5.50394507e-02 -5.27939545e-02 -3.95873436e-02
 -3.64216426e-02 -3.23478124e-02 -3.02871562e-02 -1.83200194e-02
 -1.68819918e-02 -7.70309567e-03 -4.39116468e-03  1.48199523e-05
  3.70422656e-03  4.87523152e-03  8.40405913e-03  1.06082484e-02
  1.95948808e-02  2.41433395e-02  2.48139294e-02  2.51880125e-02
  2.86645776e-02  3.19008942e-02  3.73038227e-02  3.85419546e-02
  3.89731780e-02  4.22114127e-02  4.45565969e-02  4.58788926e-02
  4.73768856e-02  4.88657028e-02  5.03666384e-02  5.13365022e-02
  5.20216854e-02  5.26679236e-02  5.42718718e-02  5.52957576e-02
  5.66658550e-02  5.97078425e-02  6.06483859e-02  6.13359730e-02
  6.35750986e-02  6.38770419e-02  6.65626832e-02  6.90695032e-02
  6.99342091e-02  7.24364192e-02  7.39607733e-02  7.51346696e-02
  7.56111837e-02  7.67704536e-02  7.81695342e-02  7.87008080e-02
  7.98700760e-02  8.13936540e-02  8.34461181e-02  8.58665865e-02
  8.74315692e-02  8.85832993e-02  9.05462064e-02  9.20752972e-02
  9.42973587e-02  9.49822181e-02  9.65990209e-02  9.69826339e-02
  9.82894281e-02  9.98962184e-02  1.00354755e-01  1.00901887e-01
  1.01452972e-01  1.03140366e-01  1.05256575e-01  1.06197881e-01
  1.08496896e-01  1.10279254e-01  1.12426411e-01  1.13297162e-01
  1.14081725e-01  1.17254802e-01  1.18870486e-01  1.20311483e-01
  1.20607567e-01  1.21265767e-01  1.22299852e-01  1.24367397e-01
  1.26172362e-01  1.26999750e-01  1.28780544e-01  1.28862979e-01
  1.30332814e-01  1.30617535e-01  1.32405049e-01  1.33527670e-01
  1.35214700e-01  1.35925078e-01  1.36919179e-01  1.39793340e-01
  1.41656422e-01  1.42346249e-01  1.44052445e-01  1.46878717e-01
  1.49528859e-01  1.51137743e-01  1.52290465e-01  1.53961071e-01
  1.56298085e-01  1.58247103e-01  1.59249737e-01  1.61789109e-01
  1.63298662e-01  1.65586561e-01  1.65829285e-01  1.67619699e-01
  1.69849525e-01  1.72520433e-01  1.73363977e-01  1.74935864e-01
  1.77312826e-01  1.78172944e-01  1.79842601e-01  1.82238486e-01
  1.84564754e-01  1.85080726e-01  1.85694790e-01  1.89241028e-01
  1.89875025e-01  1.91627754e-01  1.92420741e-01  1.93329327e-01
  1.95424321e-01  1.97296751e-01  1.97751500e-01  1.98472996e-01
  1.99168378e-01  2.01208487e-01  2.03390933e-01  2.04165529e-01
  2.06443110e-01  2.07363295e-01  2.09138198e-01  2.10343028e-01
  2.12015216e-01  2.13555491e-01  2.14366349e-01  2.16095018e-01
  2.19003852e-01  2.19530537e-01  2.22197500e-01  2.25260183e-01
  2.25482421e-01  2.27014614e-01  2.28371351e-01  2.31045607e-01
  2.32580150e-01  2.36429602e-01  2.37617134e-01  2.38955861e-01
  2.41297638e-01  2.44235024e-01  2.45267100e-01  2.48748699e-01
  2.49466022e-01  2.51994353e-01  2.55690792e-01  2.58164652e-01
  2.60447216e-01  2.63993398e-01  2.65561302e-01  2.66285089e-01
  2.70882773e-01  2.73070525e-01  2.75453878e-01  2.77831569e-01
  2.79649190e-01  2.82779723e-01  2.83429960e-01  2.86912620e-01
  2.88521246e-01  2.90790171e-01  2.91695336e-01  2.94068054e-01
  2.95266022e-01  2.97674074e-01  2.98151825e-01  3.00588508e-01
  3.03477053e-01  3.05149414e-01  3.07435026e-01  3.09707918e-01
  3.10772400e-01  3.12747956e-01  3.13790839e-01  3.18148074e-01
  3.21352594e-01  3.22619517e-01  3.23927157e-01  3.25482555e-01
  3.28427439e-01  3.30211263e-01  3.32310317e-01  3.36302340e-01
  3.37489826e-01  3.39715501e-01  3.41469118e-01  3.44982184e-01
  3.46619520e-01  3.50038819e-01  3.50980029e-01  3.52818572e-01
  3.54061579e-01  3.56430121e-01  3.58473407e-01  3.59618960e-01
  3.62566999e-01  3.66583510e-01  3.69134157e-01  3.70727345e-01
  3.73184755e-01  3.77562905e-01  3.78205576e-01  3.80900084e-01
  3.82342151e-01  3.83043843e-01  3.85127864e-01  3.89069454e-01
  3.90533660e-01  3.91588256e-01  3.95704697e-01  3.97399940e-01
  3.98916592e-01  3.99500863e-01  3.99891876e-01  4.01868919e-01
  4.04476972e-01  4.06420868e-01  4.09566628e-01  4.10543207e-01
  4.12293240e-01  4.12840939e-01  4.16061057e-01  4.17238414e-01
  4.18467731e-01  4.19092788e-01  4.22356518e-01  4.24696426e-01
  4.25096017e-01  4.25898614e-01  4.26328235e-01  4.28327047e-01
  4.30138542e-01  4.31917491e-01  4.32236633e-01  4.33979204e-01
  4.37551283e-01  4.39527443e-01  4.41187589e-01  4.42911675e-01
  4.44422735e-01  4.45675586e-01  4.48935529e-01  4.51154859e-01
  4.52549511e-01  4.54479242e-01  4.55022536e-01  4.56742465e-01
  4.59536428e-01  4.60332150e-01  4.61175321e-01  4.63680986e-01
  4.65596018e-01  4.67196619e-01  4.69738100e-01  4.70841694e-01
  4.73212337e-01  4.75894957e-01  4.76868763e-01  4.77906535e-01
  4.79143919e-01  4.82220268e-01  4.83595359e-01  4.85322007e-01
  4.86360742e-01  4.88631812e-01  4.90610500e-01  4.91769064e-01
  4.93732743e-01  4.94911736e-01  4.96985286e-01  4.98448695e-01
  5.01112461e-01  5.02657210e-01  5.05146917e-01  5.07132586e-01
  5.10156365e-01  5.11027639e-01  5.11562974e-01  5.13762445e-01
  5.15392746e-01  5.16266257e-01  5.18451092e-01  5.19396800e-01
  5.21501256e-01  5.22789830e-01  5.25141303e-01  5.25488642e-01
  5.29926096e-01  5.30698331e-01  5.34856827e-01  5.35817564e-01
  5.38185695e-01  5.41848050e-01  5.45082939e-01  5.50156597e-01
  5.50841002e-01  5.54667976e-01  5.56850631e-01  5.58797964e-01
  5.60410621e-01  5.64443594e-01  5.67718018e-01  5.69138747e-01
  5.70277506e-01  5.73184849e-01  5.74674231e-01  5.77439979e-01
  5.79830187e-01  5.81039594e-01  5.83261934e-01  5.87333475e-01
  5.88658052e-01  5.91357350e-01  5.93136138e-01  5.95228062e-01
  5.96021234e-01  6.00963208e-01  6.02088343e-01  6.06386582e-01
  6.06629464e-01  6.09850371e-01  6.10853317e-01  6.14932003e-01
  6.15880587e-01  6.16902872e-01  6.22753359e-01  6.25822760e-01
  6.28544292e-01  6.29339977e-01  6.31628221e-01  6.34485223e-01
  6.34834513e-01  6.39990192e-01  6.41673420e-01  6.44702607e-01
  6.46367907e-01  6.46938184e-01  6.48777197e-01  6.52192234e-01
  6.54291852e-01  6.55348886e-01  6.57041172e-01  6.59307046e-01
  6.63970136e-01  6.66495966e-01  6.66962889e-01  6.68838522e-01
  6.72041270e-01  6.73247761e-01  6.75366728e-01  6.78200174e-01
  6.81494430e-01  6.82167608e-01  6.84960229e-01  6.86683003e-01
  6.88215916e-01  6.91424194e-01  6.93662244e-01  6.95916669e-01
  6.97467101e-01  6.98730841e-01  7.01020201e-01  7.03833492e-01
  7.05387733e-01  7.06738290e-01  7.10264567e-01  7.11951199e-01
  7.14916511e-01  7.17735359e-01  7.19033525e-01  7.21464975e-01
  7.26849894e-01  7.27292094e-01  7.30079334e-01  7.33354625e-01
  7.35719483e-01  7.37957116e-01  7.41462467e-01  7.43784253e-01
  7.45482608e-01  7.47611198e-01  7.48573440e-01  7.51011312e-01
  7.54904985e-01  7.55912910e-01  7.56842068e-01  7.59475735e-01
  7.62641335e-01  7.64059407e-01  7.66763873e-01  7.67250479e-01
  7.70961324e-01  7.74391203e-01  7.76092032e-01  7.80260849e-01
  7.80561027e-01  7.83170732e-01  7.84082669e-01  7.86500881e-01
  7.87901282e-01  7.91777811e-01  7.95465847e-01  7.97127809e-01
  7.98049003e-01  8.03571041e-01  8.05326313e-01  8.07191759e-01
  8.11811263e-01  8.13911674e-01  8.14358606e-01  8.16424834e-01
  8.17621209e-01  8.19304308e-01  8.21350594e-01  8.22843002e-01
  8.25506926e-01  8.28617449e-01  8.29959460e-01  8.32103184e-01
  8.34025509e-01  8.35334771e-01  8.36103380e-01  8.39918162e-01
  8.40608631e-01  8.41804087e-01  8.46168539e-01  8.48558361e-01
  8.50161434e-01  8.52660773e-01  8.54499584e-01  8.55500803e-01
  8.58759236e-01  8.61720668e-01  8.63102004e-01  8.64571720e-01
  8.67562556e-01  8.68198812e-01  8.71828943e-01  8.73440469e-01
  8.74705567e-01  8.77286167e-01  8.79799122e-01  8.80722187e-01
  8.81683523e-01  8.85474636e-01  8.86977821e-01  8.87791658e-01
  8.91247287e-01  8.92832466e-01  8.93589605e-01  8.95873691e-01
  8.98587581e-01  9.00692989e-01  9.03328502e-01  9.04835055e-01
  9.07578498e-01  9.10477686e-01  9.14092419e-01  9.15127082e-01
  9.17461823e-01  9.18222432e-01  9.23262565e-01  9.23618925e-01
  9.26949264e-01  9.28897696e-01  9.31940113e-01  9.34159632e-01
  9.35516484e-01  9.38106686e-01  9.39632180e-01  9.41852668e-01
  9.43519002e-01  9.45922467e-01  9.47487012e-01  9.48719416e-01
  9.53534620e-01  9.54593788e-01  9.57042526e-01  9.59002214e-01
  9.59897722e-01  9.62939903e-01  9.64392393e-01  9.66617111e-01
  9.69167912e-01  9.71287045e-01  9.73412789e-01  9.76187780e-01
  9.79874628e-01  9.83332828e-01  9.84900728e-01  9.85592402e-01
  9.88317689e-01  9.90376669e-01  9.92214507e-01  9.93299014e-01
  9.97087357e-01  9.98827364e-01  1.00121259e+00  1.00211069e+00
  1.00484932e+00  1.00818224e+00  1.00886373e+00  1.01046829e+00
  1.01355620e+00  1.01545316e+00  1.01574057e+00  1.01588957e+00
  1.01893024e+00  1.02063444e+00  1.02317605e+00  1.02518409e+00
  1.02739169e+00  1.02890882e+00  1.03161751e+00  1.03371392e+00
  1.03444870e+00  1.03786221e+00  1.03813635e+00  1.04075913e+00
  1.04431003e+00  1.04535126e+00  1.04650420e+00  1.04940902e+00
  1.05091598e+00  1.05333638e+00  1.05469480e+00  1.05691425e+00
  1.05966812e+00  1.06389119e+00  1.06499945e+00  1.07001969e+00
  1.07216251e+00  1.07433906e+00  1.07526031e+00  1.07701039e+00
  1.07760166e+00  1.08047734e+00  1.08206995e+00  1.08836516e+00
  1.09029747e+00  1.09125894e+00  1.09419241e+00  1.09797845e+00
  1.10147132e+00  1.10183739e+00  1.10550452e+00  1.10774818e+00
  1.11164916e+00  1.11260061e+00  1.11365235e+00  1.11653839e+00
  1.11942178e+00  1.12145061e+00  1.12348410e+00  1.12541587e+00
  1.12897802e+00  1.13191479e+00  1.13484258e+00  1.13567145e+00
  1.13771682e+00  1.14009428e+00  1.14166621e+00  1.14324315e+00
  1.14837510e+00  1.15134033e+00  1.15351795e+00  1.15788947e+00
  1.16067653e+00  1.16432848e+00  1.16591998e+00  1.16972397e+00
  1.17000216e+00  1.17278806e+00  1.17416614e+00  1.17698038e+00
  1.17800547e+00  1.17958896e+00  1.18206756e+00  1.18350296e+00
  1.18643340e+00  1.18938461e+00  1.19060564e+00  1.19463945e+00
  1.19568375e+00  1.19958658e+00  1.20281711e+00  1.20912205e+00
  1.21044328e+00  1.21178257e+00  1.21422058e+00  1.21456412e+00
  1.21827002e+00  1.22274010e+00  1.22569424e+00  1.22739830e+00
  1.23046056e+00  1.23184721e+00  1.23353930e+00  1.23552948e+00
  1.23720669e+00  1.23997307e+00  1.24158783e+00  1.24349496e+00
  1.24723958e+00  1.24885409e+00  1.25144801e+00  1.25157192e+00
  1.25435722e+00  1.25507733e+00  1.25724990e+00  1.25979890e+00
  1.26484563e+00  1.26611869e+00  1.26921635e+00  1.27095436e+00
  1.27307929e+00  1.27357001e+00  1.27860070e+00  1.27933502e+00
  1.28295722e+00  1.28537165e+00  1.29003862e+00  1.29370175e+00
  1.29483819e+00  1.30022889e+00  1.30086565e+00  1.30368975e+00
  1.30529257e+00  1.31038384e+00  1.31240731e+00  1.31456657e+00
  1.32009700e+00  1.32141238e+00  1.32630567e+00  1.33298519e+00
  1.33634152e+00  1.34099579e+00  1.34284039e+00  1.34392085e+00
  1.34844046e+00  1.35100862e+00  1.35414138e+00  1.35548752e+00
  1.35921608e+00  1.36099500e+00  1.36356321e+00  1.36882445e+00
  1.37401645e+00  1.37418842e+00  1.38036629e+00  1.38225663e+00
  1.38899764e+00  1.39128791e+00  1.39461958e+00  1.39751658e+00
  1.40082885e+00  1.40574004e+00  1.41091182e+00  1.41220607e+00
  1.41404462e+00  1.42018226e+00  1.42243467e+00  1.42885929e+00
  1.43117562e+00  1.43628344e+00  1.43888217e+00  1.44299425e+00
  1.44483391e+00  1.45090743e+00  1.45327456e+00  1.45728818e+00
  1.46304262e+00  1.46980006e+00  1.47317250e+00  1.47897764e+00
  1.48494721e+00  1.48621734e+00  1.49257357e+00  1.49709941e+00
  1.50635940e+00  1.51283540e+00  1.51458104e+00  1.51953822e+00
  1.52534766e+00  1.52985179e+00  1.53420612e+00  1.54722664e+00
  1.56127018e+00  1.57064030e+00  1.58190782e+00  1.59241286e+00
  1.60254024e+00  1.60879450e+00  1.61778629e+00  1.62409935e+00
  1.62699415e+00  1.63782641e+00  1.66752393e+00  1.67536763e+00
  1.68497937e+00  1.70462129e+00  1.75838432e+00  1.81798418e+00
  1.83927857e+00  1.88940650e+00  1.89558811e+00  1.92981232e+00
  1.96084493e+00  2.01009452e+00  2.06429786e+00  2.06730420e+00
  2.15338333e+00  2.22731097e+00  2.27842017e+00  2.33184398e+00
  2.39559290e+00  2.41548722e+00  2.46537290e+00  2.48397038e+00
  2.50724441e+00  2.56733234e+00  2.62955600e+00  2.69365045e+00
  2.71441695e+00  2.71719243e+00  2.76298227e+00  2.82351861e+00
  2.85264977e+00  2.85947191e+00  2.87755213e+00  2.89197690e+00
  2.97420886e+00  3.01509472e+00  3.07125727e+00  3.09175914e+00
  3.12981245e+00  3.13471257e+00  3.15742316e+00  3.18492384e+00
  3.20423093e+00  3.24183107e+00  3.27651257e+00  3.28387422e+00
  3.29840564e+00  3.30821404e+00  3.33080287e+00  3.35238658e+00
  3.35847131e+00  3.36264706e+00  3.37840000e+00  3.40825293e+00
  3.41575723e+00  3.42472505e+00  3.44269771e+00  3.44680520e+00
  3.45487972e+00  3.47435194e+00  3.48245041e+00  3.49031286e+00
  3.49957472e+00  3.50487955e+00  3.52927661e+00  3.53605162e+00
  3.53699513e+00  3.55003970e+00  3.55829531e+00  3.58365049e+00
  3.61776269e+00  3.63212645e+00  3.66072440e+00  3.67577107e+00
  3.68052803e+00  3.68922074e+00  3.69059009e+00  3.69767837e+00
  3.74386588e+00  3.75589101e+00  3.77465387e+00  3.80190621e+00
  3.85512127e+00  3.87240143e+00  3.89094311e+00  3.90767494e+00
  3.93121689e+00  3.93630469e+00  3.95755041e+00  3.98350558e+00
  4.01882935e+00  4.04123533e+00  4.04875366e+00  4.06964573e+00
  4.07741181e+00  4.08476392e+00  4.10379903e+00  4.15801497e+00
  4.25072751e+00  4.28746594e+00  4.29698637e+00  4.29815499e+00
  4.38959474e+00  4.39325236e+00  4.42714376e+00  4.44032709e+00
  4.46010031e+00  4.50931455e+00  4.53238927e+00  4.53880969e+00
  4.60998190e+00  4.64801971e+00  4.66533132e+00  4.67968170e+00
  4.71080467e+00  4.78754730e+00  4.82402115e+00  4.94126930e+00
  5.00659652e+00  5.03551959e+00  5.06642342e+00  5.12411827e+00
  5.13359142e+00  5.29568173e+00  5.31322036e+00  5.37753866e+00
  5.43057949e+00  5.43372632e+00  5.44094368e+00  5.47971597e+00
  5.51571991e+00  5.51886845e+00  5.58071866e+00  5.65522558e+00
  5.72520681e+00  5.74241776e+00  5.82455783e+00  5.83892790e+00
  5.95085286e+00  5.95571183e+00  6.02884330e+00  6.05757384e+00
  6.10091139e+00  6.11605048e+00  6.15199171e+00  6.16822886e+00
  6.25524926e+00  6.34955183e+00  6.41908782e+00  6.42701143e+00
  6.43140571e+00  6.54131291e+00  6.60353982e+00  6.64321703e+00
  6.69322734e+00  6.77961905e+00  6.82997470e+00  6.87553955e+00
  6.87868561e+00  6.95527627e+00  7.01935925e+00  7.11995421e+00
  7.15297877e+00  7.22693057e+00  7.26250627e+00  7.28361371e+00
  7.30989812e+00  7.36821641e+00  7.42931554e+00  7.45305757e+00
  7.63756870e+00  7.69335549e+00  7.82541791e+00  7.90767086e+00
  8.03075015e+00  8.37689848e+00  1.12468072e+01  1.31101577e+01
  1.33214812e+01  1.40969257e+01  1.59071668e+01  1.75357828e+01]
    CPU time for vj and vk   2684.08 sec, wall time     84.15 sec
E1 = -2304.876425069576  E_coul = 982.9849522984978
cycle= 1 E= -519.083193921028  delta_E= 4.66  |g|= 0.989  |ddm|= 7.94
    CPU time for cycle= 1   2686.65 sec, wall time     84.40 sec
diis-norm(errvec)=4.09782
diis-c [-16.79210503   1.        ]
  HOMO = -0.0575562264009135  LUMO = 0.00637152177783924
  mo_energy =
[-2.06069751e+01 -2.06025104e+01 -2.02591526e+01 -1.16783438e+01
 -1.14502059e+01 -1.14477674e+01 -2.45771424e+00 -2.43440982e+00
 -2.43416679e+00 -2.43206822e+00 -2.43175869e+00 -2.42949629e+00
 -2.41656596e+00 -2.41206773e+00 -2.40642704e+00 -2.40633202e+00
 -2.40369197e+00 -2.39458044e+00 -2.39266654e+00 -2.37443545e+00
 -2.35904286e+00 -2.35354186e+00 -2.34244632e+00 -2.33746882e+00
 -2.33042652e+00 -2.31486181e+00 -2.27785129e+00 -2.26434919e+00
 -2.25314721e+00 -2.25225860e+00 -1.69254567e+00 -1.50865386e+00
 -1.43116469e+00 -1.20224140e+00 -1.03676545e+00 -9.33169817e-01
 -8.76774048e-01 -8.16896993e-01 -7.85740913e-01 -7.17736221e-01
 -7.05470521e-01 -6.35670486e-01 -6.17971278e-01 -6.00790651e-01
 -5.34993039e-01 -4.65734121e-01 -4.24865960e-01 -2.43319401e-01
 -2.15491764e-01 -2.12662358e-01 -1.75601133e-01 -1.56446655e-01
 -1.41901093e-01 -1.16533007e-01 -1.10017298e-01 -1.00751741e-01
 -9.13966154e-02 -8.78805882e-02 -5.75562264e-02  6.37152178e-03
  1.33047632e-02  1.56217074e-02  1.78291662e-02  2.05846225e-02
  2.19626149e-02  2.50520903e-02  2.80359754e-02  2.99657291e-02
  3.15256328e-02  3.32169045e-02  3.64326691e-02  4.20036809e-02
  4.31412658e-02  4.61581439e-02  4.64511176e-02  4.78058799e-02
  4.97398939e-02  5.17738986e-02  5.35777192e-02  5.45634230e-02
  5.76413580e-02  6.01871455e-02  6.22378374e-02  6.37533441e-02
  6.58411126e-02  6.71829367e-02  6.95014622e-02  7.06619061e-02
  7.18225872e-02  7.35138524e-02  7.46774181e-02  7.58380105e-02
  7.72898287e-02  7.88640633e-02  8.04118762e-02  8.23494449e-02
  8.35014023e-02  8.42144754e-02  8.47651764e-02  8.67014567e-02
  8.81536396e-02  9.06956484e-02  9.19391452e-02  9.23415640e-02
  9.46852530e-02  9.58121338e-02  9.75259826e-02  9.93304778e-02
  1.01660181e-01  1.02032924e-01  1.02919994e-01  1.04333499e-01
  1.06125404e-01  1.07730026e-01  1.08147381e-01  1.08322204e-01
  1.10326313e-01  1.11735879e-01  1.13074569e-01  1.15148041e-01
  1.16105477e-01  1.19252547e-01  1.19645366e-01  1.21501532e-01
  1.23328263e-01  1.26405146e-01  1.27544944e-01  1.28503408e-01
  1.29364686e-01  1.30982336e-01  1.31653090e-01  1.33048305e-01
  1.34105507e-01  1.35331067e-01  1.36600836e-01  1.37218201e-01
  1.40446031e-01  1.42729024e-01  1.43795910e-01  1.45431672e-01
  1.47438856e-01  1.48111897e-01  1.50750237e-01  1.52686482e-01
  1.53777475e-01  1.55336265e-01  1.58371303e-01  1.62369082e-01
  1.63064530e-01  1.65048405e-01  1.67151138e-01  1.68828652e-01
  1.71081176e-01  1.73512317e-01  1.75709136e-01  1.76659430e-01
  1.80239122e-01  1.84039385e-01  1.84263052e-01  1.86447245e-01
  1.88178876e-01  1.89955265e-01  1.92008497e-01  1.92243615e-01
  1.94426943e-01  1.96010761e-01  1.98120875e-01  1.98409938e-01
  2.00567364e-01  2.04165842e-01  2.06369728e-01  2.08491746e-01
  2.10230316e-01  2.11304951e-01  2.12759961e-01  2.15332630e-01
  2.16602993e-01  2.19938109e-01  2.21566961e-01  2.22338889e-01
  2.23453209e-01  2.25737052e-01  2.27310675e-01  2.29187430e-01
  2.30082075e-01  2.30757144e-01  2.32188282e-01  2.35012078e-01
  2.35577297e-01  2.37051250e-01  2.38104161e-01  2.41881376e-01
  2.43132657e-01  2.44882280e-01  2.45952070e-01  2.48564235e-01
  2.52176585e-01  2.53169984e-01  2.54638248e-01  2.56558531e-01
  2.58436303e-01  2.59644358e-01  2.64290801e-01  2.66665761e-01
  2.70272238e-01  2.71053309e-01  2.72438346e-01  2.76564408e-01
  2.77146671e-01  2.78303174e-01  2.80360282e-01  2.84696162e-01
  2.85332143e-01  2.88493443e-01  2.95067202e-01  2.98344290e-01
  2.98833214e-01  3.01513539e-01  3.03056208e-01  3.04661122e-01
  3.06173207e-01  3.09260543e-01  3.12840736e-01  3.14960554e-01
  3.17482013e-01  3.18946081e-01  3.19336237e-01  3.22106402e-01
  3.25926348e-01  3.27345987e-01  3.29982885e-01  3.34401367e-01
  3.36107003e-01  3.38890575e-01  3.41112018e-01  3.45284335e-01
  3.48481640e-01  3.49836784e-01  3.52020081e-01  3.54112223e-01
  3.56347645e-01  3.58410951e-01  3.61686391e-01  3.63299739e-01
  3.66227986e-01  3.69710462e-01  3.72545189e-01  3.74217257e-01
  3.75299695e-01  3.76801062e-01  3.80503057e-01  3.81733487e-01
  3.84345600e-01  3.86998224e-01  3.91015223e-01  3.92227323e-01
  3.92879936e-01  3.95639347e-01  3.97567863e-01  4.00614878e-01
  4.01431248e-01  4.02650648e-01  4.03421392e-01  4.06653757e-01
  4.08766038e-01  4.10144214e-01  4.13078853e-01  4.14180541e-01
  4.18175302e-01  4.18696642e-01  4.19582196e-01  4.23626852e-01
  4.24243112e-01  4.26298921e-01  4.26436781e-01  4.32625837e-01
  4.33642881e-01  4.34515868e-01  4.35479255e-01  4.38648146e-01
  4.40041117e-01  4.41959665e-01  4.46928783e-01  4.48217035e-01
  4.49810211e-01  4.52938451e-01  4.55606949e-01  4.57094790e-01
  4.59318739e-01  4.62482551e-01  4.63350155e-01  4.65544653e-01
  4.66782926e-01  4.68477612e-01  4.71370818e-01  4.73322832e-01
  4.74317993e-01  4.76363880e-01  4.77686382e-01  4.78701853e-01
  4.80697862e-01  4.81752906e-01  4.83173475e-01  4.84652128e-01
  4.86888422e-01  4.88142019e-01  4.88691152e-01  4.91080195e-01
  4.93602722e-01  4.93750207e-01  4.96266847e-01  4.99394900e-01
  4.99695844e-01  5.01572935e-01  5.03661453e-01  5.04845804e-01
  5.05724269e-01  5.06454723e-01  5.11265085e-01  5.12836035e-01
  5.13060817e-01  5.13915073e-01  5.17010640e-01  5.19643354e-01
  5.20388199e-01  5.24226562e-01  5.25596304e-01  5.25938560e-01
  5.29492515e-01  5.30471283e-01  5.33589392e-01  5.35596276e-01
  5.36960907e-01  5.39498030e-01  5.39936646e-01  5.42389641e-01
  5.44429594e-01  5.47669895e-01  5.48446880e-01  5.52447879e-01
  5.54765323e-01  5.56171256e-01  5.58823093e-01  5.59680779e-01
  5.63263440e-01  5.63985318e-01  5.67382637e-01  5.69309352e-01
  5.70417003e-01  5.72916935e-01  5.74859004e-01  5.77708360e-01
  5.78589043e-01  5.79871438e-01  5.81943767e-01  5.83783595e-01
  5.85017052e-01  5.88074101e-01  5.89918258e-01  5.93684812e-01
  5.94625114e-01  5.95798994e-01  5.98424309e-01  6.00222956e-01
  6.01355469e-01  6.02838957e-01  6.06035271e-01  6.07566990e-01
  6.09818557e-01  6.11479443e-01  6.14875588e-01  6.16250767e-01
  6.18757349e-01  6.19815516e-01  6.22387450e-01  6.25431403e-01
  6.27607109e-01  6.29331295e-01  6.32462477e-01  6.35765120e-01
  6.38258813e-01  6.39974441e-01  6.41028758e-01  6.42789120e-01
  6.44949871e-01  6.47790968e-01  6.52069065e-01  6.52426977e-01
  6.53518781e-01  6.56537388e-01  6.58384214e-01  6.60231637e-01
  6.65598019e-01  6.66966091e-01  6.70177635e-01  6.72737476e-01
  6.75894986e-01  6.76941636e-01  6.81142218e-01  6.82292507e-01
  6.85777383e-01  6.86737466e-01  6.90910552e-01  6.95743793e-01
  6.97962006e-01  6.98063112e-01  7.02125553e-01  7.08646859e-01
  7.12761436e-01  7.16655145e-01  7.17008797e-01  7.18266569e-01
  7.23751903e-01  7.28654659e-01  7.30110324e-01  7.36323615e-01
  7.37691248e-01  7.37720782e-01  7.42053144e-01  7.46022963e-01
  7.48024263e-01  7.48394853e-01  7.53896727e-01  7.57285321e-01
  7.58715638e-01  7.61355873e-01  7.62029150e-01  7.65084304e-01
  7.67542206e-01  7.69155105e-01  7.70005673e-01  7.70972855e-01
  7.73593936e-01  7.76766713e-01  7.78295534e-01  7.82863769e-01
  7.87927451e-01  7.91435653e-01  7.91960790e-01  7.94109498e-01
  7.96308598e-01  7.98137431e-01  7.99114598e-01  7.99852053e-01
  8.02696877e-01  8.04366875e-01  8.05865918e-01  8.10442507e-01
  8.12072476e-01  8.12364719e-01  8.17560277e-01  8.20912749e-01
  8.22684586e-01  8.24852126e-01  8.27198748e-01  8.29580332e-01
  8.31860392e-01  8.35552154e-01  8.36295566e-01  8.36663696e-01
  8.41736608e-01  8.43093287e-01  8.44763989e-01  8.46967804e-01
  8.48312558e-01  8.50157520e-01  8.52438067e-01  8.56084078e-01
  8.57779367e-01  8.61629711e-01  8.62762567e-01  8.64493690e-01
  8.67378059e-01  8.69919184e-01  8.70371686e-01  8.72880148e-01
  8.75404857e-01  8.79561410e-01  8.80807646e-01  8.84331305e-01
  8.84944825e-01  8.89245406e-01  8.91243748e-01  8.93372970e-01
  8.94828741e-01  8.95920914e-01  8.99314271e-01  9.00922201e-01
  9.02756826e-01  9.06757097e-01  9.07610499e-01  9.11494506e-01
  9.13200607e-01  9.15188587e-01  9.16562270e-01  9.21081652e-01
  9.21750616e-01  9.23630598e-01  9.26084647e-01  9.29182779e-01
  9.30825970e-01  9.33286066e-01  9.35329791e-01  9.38094343e-01
  9.39768780e-01  9.40104856e-01  9.43885581e-01  9.45606618e-01
  9.48448143e-01  9.49155221e-01  9.50990782e-01  9.51953771e-01
  9.55841484e-01  9.56705577e-01  9.57725094e-01  9.60220227e-01
  9.61939288e-01  9.65327331e-01  9.67166047e-01  9.68319225e-01
  9.71781212e-01  9.73250552e-01  9.73614366e-01  9.75387697e-01
  9.79457125e-01  9.83445775e-01  9.85414703e-01  9.86305217e-01
  9.87720178e-01  9.88898106e-01  9.91848162e-01  9.92227105e-01
  9.95989213e-01  9.96736549e-01  9.98690162e-01  9.99341829e-01
  1.00140673e+00  1.00420227e+00  1.00589204e+00  1.00653127e+00
  1.00928185e+00  1.01112411e+00  1.01285018e+00  1.01671306e+00
  1.02120758e+00  1.02340127e+00  1.02535424e+00  1.02710664e+00
  1.03131688e+00  1.03285242e+00  1.03640452e+00  1.03734375e+00
  1.03952961e+00  1.04278007e+00  1.04674240e+00  1.04766654e+00
  1.05022625e+00  1.05122615e+00  1.05652798e+00  1.05691633e+00
  1.05868002e+00  1.06192619e+00  1.06241034e+00  1.06447169e+00
  1.06671219e+00  1.06923017e+00  1.06982244e+00  1.07277361e+00
  1.07725653e+00  1.07844667e+00  1.07870040e+00  1.07984743e+00
  1.08334710e+00  1.08616494e+00  1.08760464e+00  1.09081031e+00
  1.09165495e+00  1.09495440e+00  1.09732125e+00  1.09822053e+00
  1.09964057e+00  1.10182270e+00  1.10632994e+00  1.10739769e+00
  1.10897941e+00  1.11022849e+00  1.11167331e+00  1.11376664e+00
  1.11779406e+00  1.11866610e+00  1.12230300e+00  1.12587093e+00
  1.12733217e+00  1.13123968e+00  1.13293357e+00  1.13385230e+00
  1.13572821e+00  1.13908541e+00  1.14175488e+00  1.14345642e+00
  1.14647625e+00  1.15110028e+00  1.15177538e+00  1.15373691e+00
  1.15573423e+00  1.15911290e+00  1.16087005e+00  1.16273596e+00
  1.16446393e+00  1.16899355e+00  1.17031836e+00  1.17111732e+00
  1.17349197e+00  1.17494594e+00  1.17930390e+00  1.18186056e+00
  1.18453603e+00  1.18584072e+00  1.18992584e+00  1.19003379e+00
  1.19342225e+00  1.19623795e+00  1.19779547e+00  1.20084618e+00
  1.20340684e+00  1.20457516e+00  1.20724145e+00  1.20838243e+00
  1.21600931e+00  1.21931451e+00  1.22082333e+00  1.22270979e+00
  1.22397318e+00  1.22586809e+00  1.22830779e+00  1.23044558e+00
  1.23312114e+00  1.23763924e+00  1.24044018e+00  1.24168864e+00
  1.24535895e+00  1.24684566e+00  1.24961058e+00  1.25182942e+00
  1.25748476e+00  1.26029391e+00  1.26230276e+00  1.26402239e+00
  1.26735082e+00  1.26824423e+00  1.27102018e+00  1.27464910e+00
  1.27550171e+00  1.27757261e+00  1.27987394e+00  1.28283628e+00
  1.28490611e+00  1.28581354e+00  1.29281004e+00  1.29482875e+00
  1.29605454e+00  1.29976105e+00  1.30302385e+00  1.30453994e+00
  1.30915980e+00  1.31067426e+00  1.31159560e+00  1.31675022e+00
  1.31934340e+00  1.32321014e+00  1.32811504e+00  1.32863224e+00
  1.32963439e+00  1.33095558e+00  1.33810686e+00  1.33871901e+00
  1.34267273e+00  1.34502864e+00  1.34961076e+00  1.35082883e+00
  1.35513259e+00  1.35743260e+00  1.35922613e+00  1.36423839e+00
  1.36599092e+00  1.36771373e+00  1.36913954e+00  1.37191805e+00
  1.37711493e+00  1.38270749e+00  1.38504524e+00  1.38800460e+00
  1.38894418e+00  1.39139320e+00  1.39258918e+00  1.39750781e+00
  1.39896816e+00  1.40088753e+00  1.40311776e+00  1.40660864e+00
  1.40922237e+00  1.41663264e+00  1.42034347e+00  1.42321269e+00
  1.42572670e+00  1.42878374e+00  1.43244137e+00  1.43404141e+00
  1.43645451e+00  1.43942737e+00  1.44387652e+00  1.44499560e+00
  1.44832624e+00  1.45276234e+00  1.45637230e+00  1.46255998e+00
  1.46958185e+00  1.47543680e+00  1.47815276e+00  1.47981230e+00
  1.48090633e+00  1.48430671e+00  1.48589685e+00  1.49268650e+00
  1.49493680e+00  1.50181657e+00  1.50437020e+00  1.50950762e+00
  1.51143432e+00  1.51728541e+00  1.52115721e+00  1.52659961e+00
  1.52768898e+00  1.53281624e+00  1.53675065e+00  1.53974762e+00
  1.54650310e+00  1.54927054e+00  1.55460456e+00  1.55504187e+00
  1.55982991e+00  1.56248141e+00  1.56629610e+00  1.57571003e+00
  1.57724167e+00  1.58132455e+00  1.58433941e+00  1.59021404e+00
  1.59773991e+00  1.60323710e+00  1.60670228e+00  1.61277732e+00
  1.62129841e+00  1.63015358e+00  1.63464389e+00  1.63900707e+00
  1.64529957e+00  1.64808122e+00  1.65313429e+00  1.66071889e+00
  1.66647725e+00  1.67115032e+00  1.67644196e+00  1.68550617e+00
  1.69512570e+00  1.69750101e+00  1.70059734e+00  1.70957126e+00
  1.71492978e+00  1.72762181e+00  1.74350632e+00  1.74998423e+00
  1.76251292e+00  1.77511001e+00  1.78382027e+00  1.78759355e+00
  1.81525494e+00  1.82649377e+00  1.83237434e+00  1.86356876e+00
  1.87341016e+00  1.91831655e+00  1.92830749e+00  1.99059360e+00
  2.00963172e+00  2.06852007e+00  2.09919036e+00  2.17002287e+00
  2.22847951e+00  2.26054852e+00  2.28390592e+00  2.34769325e+00
  2.40737679e+00  2.43925443e+00  2.46905723e+00  2.48844529e+00
  2.51863476e+00  2.54183760e+00  2.59108796e+00  2.63186589e+00
  2.67618210e+00  2.69350750e+00  2.77248503e+00  2.78940034e+00
  2.79913965e+00  2.84099276e+00  2.85291299e+00  2.87453716e+00
  2.96043585e+00  2.98254705e+00  3.01542144e+00  3.06948256e+00
  3.07836228e+00  3.11832048e+00  3.13816504e+00  3.16085592e+00
  3.17203255e+00  3.21436398e+00  3.24674737e+00  3.25545026e+00
  3.27502218e+00  3.28313619e+00  3.29922184e+00  3.32987050e+00
  3.33272732e+00  3.35295257e+00  3.39388828e+00  3.41308830e+00
  3.42340909e+00  3.42396486e+00  3.43667053e+00  3.44349424e+00
  3.48983698e+00  3.49323997e+00  3.50737460e+00  3.51290848e+00
  3.53142645e+00  3.53727837e+00  3.56763215e+00  3.57062801e+00
  3.58625347e+00  3.59440575e+00  3.62466851e+00  3.63521682e+00
  3.63770896e+00  3.66179504e+00  3.69328969e+00  3.70737129e+00
  3.72750951e+00  3.73204499e+00  3.75980446e+00  3.77943660e+00
  3.78999600e+00  3.81733197e+00  3.81918239e+00  3.83142734e+00
  3.83350298e+00  3.86608804e+00  3.89368964e+00  3.90477600e+00
  3.92548578e+00  3.93664877e+00  3.99044572e+00  4.01803564e+00
  4.02882722e+00  4.04795567e+00  4.05151249e+00  4.08202103e+00
  4.13070124e+00  4.14999847e+00  4.22220863e+00  4.24591084e+00
  4.25598699e+00  4.27523767e+00  4.28828269e+00  4.32986045e+00
  4.36419275e+00  4.37585242e+00  4.39133853e+00  4.41517301e+00
  4.47337499e+00  4.48868985e+00  4.49014966e+00  4.61886066e+00
  4.63518610e+00  4.65888163e+00  4.69941157e+00  4.78326215e+00
  4.82114948e+00  4.85728190e+00  4.92434287e+00  4.95334949e+00
  4.98088563e+00  5.02435765e+00  5.05706337e+00  5.12047390e+00
  5.20316215e+00  5.29806709e+00  5.30336878e+00  5.35787926e+00
  5.40489378e+00  5.48690256e+00  5.49120436e+00  5.49589544e+00
  5.61603913e+00  5.67909727e+00  5.68781138e+00  5.73347740e+00
  5.74920035e+00  5.76890172e+00  5.81960241e+00  5.91660339e+00
  5.96394745e+00  5.99348734e+00  6.05582959e+00  6.07533105e+00
  6.10810117e+00  6.15937560e+00  6.19488985e+00  6.23934794e+00
  6.25480243e+00  6.37487461e+00  6.42081993e+00  6.44880272e+00
  6.48710678e+00  6.59581856e+00  6.63387799e+00  6.75698306e+00
  6.83799016e+00  6.86595820e+00  6.92298180e+00  7.10705637e+00
  7.13135794e+00  7.15803329e+00  7.20932363e+00  7.23096507e+00
  7.26907554e+00  7.30673742e+00  7.37787745e+00  7.37990320e+00
  7.45154277e+00  7.55151462e+00  7.61262678e+00  7.66132285e+00
  7.77942825e+00  7.79883760e+00  8.06243084e+00  8.09012349e+00
  8.14003232e+00  8.49970285e+00  1.13021485e+01  1.31662397e+01
  1.33875934e+01  1.40953022e+01  1.58198913e+01  1.75888290e+01]
    CPU time for vj and vk   2650.93 sec, wall time     83.11 sec
E1 = -2294.8451701168287  E_coul = 972.8683103500124
cycle= 2 E= -519.168580916766  delta_E= -0.0854  |g|= 0.704  |ddm|= 6.31
    CPU time for cycle= 2   2655.84 sec, wall time     83.42 sec
diis-norm(errvec)=3.94171
diis-c [-1.91277367  0.48898707  0.51101293]
  HOMO = -0.118756738787487  LUMO = -0.0255488443908468
  mo_energy =
[-2.06476581e+01 -2.06448567e+01 -2.05913388e+01 -1.15126902e+01
 -1.13463068e+01 -1.13451642e+01 -2.46692511e+00 -2.45741947e+00
 -2.45557726e+00 -2.45549223e+00 -2.45272669e+00 -2.45239926e+00
 -2.44820658e+00 -2.44682952e+00 -2.44378190e+00 -2.44344710e+00
 -2.43889537e+00 -2.43798800e+00 -2.43718774e+00 -2.43691666e+00
 -2.43675620e+00 -2.43589115e+00 -2.43545708e+00 -2.43507933e+00
 -2.43504366e+00 -2.43247200e+00 -2.42807646e+00 -2.42671271e+00
 -2.41725666e+00 -2.40146415e+00 -1.66162499e+00 -1.50901352e+00
 -1.48825740e+00 -1.15819546e+00 -1.00825831e+00 -9.15741968e-01
 -8.51970163e-01 -8.21990440e-01 -7.69550370e-01 -7.36693857e-01
 -7.05578542e-01 -6.95266814e-01 -6.21092241e-01 -6.02396759e-01
 -5.54897941e-01 -5.42382080e-01 -5.20145022e-01 -3.20808880e-01
 -2.76091646e-01 -2.72816705e-01 -2.19687574e-01 -2.09259674e-01
 -2.05174720e-01 -1.86162534e-01 -1.58255992e-01 -1.55995284e-01
 -1.41801901e-01 -1.35257052e-01 -1.18756739e-01 -2.55488444e-02
 -1.34289592e-02 -1.09206650e-02 -6.82921937e-03 -4.98996136e-04
  2.30035471e-03  7.96324941e-03  1.03097439e-02  1.26798671e-02
  1.39421833e-02  1.77089133e-02  1.82069994e-02  2.67257231e-02
  2.76074535e-02  3.09699205e-02  3.18526022e-02  3.39418728e-02
  3.66425767e-02  3.93946530e-02  4.39526718e-02  4.44632469e-02
  4.55297305e-02  4.85202746e-02  5.22796000e-02  5.27490327e-02
  5.50506199e-02  5.55766683e-02  5.85124291e-02  5.96615837e-02
  6.06815372e-02  6.17393094e-02  6.28284879e-02  6.50407925e-02
  6.64513571e-02  6.69558307e-02  6.75294811e-02  6.90850999e-02
  7.10943361e-02  7.21450770e-02  7.32277486e-02  7.40930163e-02
  7.56899716e-02  7.81560690e-02  7.94792355e-02  8.17748016e-02
  8.29736802e-02  8.43183248e-02  8.68029386e-02  8.84009229e-02
  8.85685377e-02  9.00619712e-02  9.20018239e-02  9.22132811e-02
  9.45238190e-02  9.67380062e-02  9.87253949e-02  9.99949456e-02
  1.02094772e-01  1.02769275e-01  1.04963246e-01  1.06593761e-01
  1.07336943e-01  1.08314033e-01  1.08508642e-01  1.10220573e-01
  1.11742330e-01  1.12895789e-01  1.15114312e-01  1.15443997e-01
  1.16180954e-01  1.18184473e-01  1.19346287e-01  1.21972006e-01
  1.23723990e-01  1.25912927e-01  1.27747111e-01  1.29174834e-01
  1.30932906e-01  1.31970796e-01  1.32923546e-01  1.34175680e-01
  1.34491181e-01  1.35432280e-01  1.37512716e-01  1.37980365e-01
  1.38853613e-01  1.40497839e-01  1.40849686e-01  1.42552432e-01
  1.44104715e-01  1.46542180e-01  1.49036880e-01  1.51819927e-01
  1.53099207e-01  1.56036946e-01  1.59865088e-01  1.60500606e-01
  1.62600232e-01  1.64337287e-01  1.65191293e-01  1.67520947e-01
  1.67884492e-01  1.71532086e-01  1.73623903e-01  1.75992822e-01
  1.76692642e-01  1.77521378e-01  1.78966986e-01  1.80470160e-01
  1.83644184e-01  1.85548032e-01  1.88496922e-01  1.90424280e-01
  1.91734433e-01  1.93098025e-01  1.96701746e-01  1.97286401e-01
  1.98730730e-01  2.02460472e-01  2.03014193e-01  2.04533695e-01
  2.06127372e-01  2.06431481e-01  2.08981550e-01  2.09376411e-01
  2.13034922e-01  2.13726655e-01  2.15460563e-01  2.16561395e-01
  2.20079761e-01  2.21336256e-01  2.21861095e-01  2.22448562e-01
  2.23284430e-01  2.24555938e-01  2.26401807e-01  2.27663696e-01
  2.28461761e-01  2.31601083e-01  2.32551444e-01  2.33472091e-01
  2.35419040e-01  2.36775356e-01  2.37938872e-01  2.39981232e-01
  2.42479202e-01  2.46901319e-01  2.48057277e-01  2.49776384e-01
  2.51309621e-01  2.52476515e-01  2.53782719e-01  2.55625784e-01
  2.60314292e-01  2.62222969e-01  2.63950699e-01  2.65970984e-01
  2.66711383e-01  2.69634915e-01  2.73105367e-01  2.75087638e-01
  2.78895205e-01  2.82218685e-01  2.83331550e-01  2.84520737e-01
  2.87871859e-01  2.89314302e-01  2.95500817e-01  2.98157082e-01
  2.98497929e-01  3.03554666e-01  3.05149165e-01  3.07589638e-01
  3.09731574e-01  3.12710393e-01  3.15937640e-01  3.18501864e-01
  3.19489372e-01  3.21895894e-01  3.24009636e-01  3.24722674e-01
  3.26617688e-01  3.29589412e-01  3.30658870e-01  3.33521153e-01
  3.36762677e-01  3.37611343e-01  3.40955186e-01  3.43523036e-01
  3.43865590e-01  3.46001767e-01  3.48134281e-01  3.49834293e-01
  3.51007721e-01  3.52489861e-01  3.53638997e-01  3.55631992e-01
  3.57444902e-01  3.59156060e-01  3.61702500e-01  3.63477431e-01
  3.64998427e-01  3.66317985e-01  3.67270770e-01  3.70117294e-01
  3.73039539e-01  3.76511754e-01  3.79854918e-01  3.84737144e-01
  3.87058390e-01  3.87635778e-01  3.92202201e-01  3.93473062e-01
  3.95729869e-01  3.98135945e-01  4.00918088e-01  4.02640174e-01
  4.04127055e-01  4.08690660e-01  4.09637681e-01  4.12269066e-01
  4.12923277e-01  4.16520813e-01  4.18099731e-01  4.18841585e-01
  4.20472950e-01  4.23403568e-01  4.24436324e-01  4.25995915e-01
  4.27147932e-01  4.29272723e-01  4.32895739e-01  4.33660778e-01
  4.35664409e-01  4.38626060e-01  4.38971050e-01  4.42852010e-01
  4.45422539e-01  4.45766187e-01  4.47872136e-01  4.48711270e-01
  4.51301533e-01  4.52733881e-01  4.54501595e-01  4.57396934e-01
  4.57853428e-01  4.58592632e-01  4.59448012e-01  4.60666617e-01
  4.63050952e-01  4.64212972e-01  4.65111456e-01  4.65970168e-01
  4.67333301e-01  4.70848951e-01  4.73124661e-01  4.75766301e-01
  4.76882366e-01  4.78455325e-01  4.79749665e-01  4.82590692e-01
  4.84752829e-01  4.85708792e-01  4.86897674e-01  4.88558799e-01
  4.89749964e-01  4.94429034e-01  4.95239683e-01  4.96222815e-01
  4.97766122e-01  4.99247076e-01  5.02586155e-01  5.02903578e-01
  5.04836544e-01  5.06870818e-01  5.08282818e-01  5.09821252e-01
  5.14006178e-01  5.15237688e-01  5.15998792e-01  5.18253989e-01
  5.18612111e-01  5.20980246e-01  5.22591306e-01  5.24932112e-01
  5.25826802e-01  5.26285780e-01  5.28798040e-01  5.30232012e-01
  5.33304390e-01  5.35278613e-01  5.36730802e-01  5.39412402e-01
  5.40411512e-01  5.41078886e-01  5.42208756e-01  5.44716095e-01
  5.44945867e-01  5.46756097e-01  5.50268610e-01  5.51006499e-01
  5.54697381e-01  5.55629533e-01  5.56378696e-01  5.58955657e-01
  5.60532038e-01  5.62024491e-01  5.64903757e-01  5.66670850e-01
  5.69928855e-01  5.73277529e-01  5.73950840e-01  5.78169286e-01
  5.81690031e-01  5.88608511e-01  5.90520168e-01  5.91877894e-01
  5.93055660e-01  5.94447618e-01  5.98748963e-01  6.01634380e-01
  6.02383410e-01  6.04544005e-01  6.07064501e-01  6.07644706e-01
  6.12366823e-01  6.14223770e-01  6.17284046e-01  6.21687568e-01
  6.22414519e-01  6.24940765e-01  6.26492866e-01  6.28239437e-01
  6.33514950e-01  6.35884502e-01  6.39375985e-01  6.39907862e-01
  6.43344683e-01  6.45328773e-01  6.47185229e-01  6.48467176e-01
  6.51424942e-01  6.53716190e-01  6.54918703e-01  6.56957004e-01
  6.60686854e-01  6.64051669e-01  6.64956654e-01  6.67035734e-01
  6.71807151e-01  6.73090184e-01  6.79010202e-01  6.80992472e-01
  6.82392751e-01  6.83621801e-01  6.88771241e-01  6.91341015e-01
  6.94336150e-01  6.95938946e-01  7.01011208e-01  7.02720635e-01
  7.06855382e-01  7.07454294e-01  7.10911849e-01  7.13151192e-01
  7.14622920e-01  7.15375639e-01  7.17868806e-01  7.19396365e-01
  7.23579331e-01  7.25990642e-01  7.28505924e-01  7.30620591e-01
  7.31708832e-01  7.34037757e-01  7.35130790e-01  7.39243345e-01
  7.41182124e-01  7.42417857e-01  7.45053815e-01  7.46773725e-01
  7.48607503e-01  7.51897448e-01  7.54533546e-01  7.56826439e-01
  7.58470178e-01  7.62698120e-01  7.64724856e-01  7.66843143e-01
  7.67058524e-01  7.70318304e-01  7.71114744e-01  7.73502782e-01
  7.77751512e-01  7.81814711e-01  7.83724703e-01  7.86316482e-01
  7.88046941e-01  7.90446353e-01  7.93864642e-01  7.94587697e-01
  7.95762764e-01  7.98385426e-01  8.00446625e-01  8.01274499e-01
  8.06280780e-01  8.08032689e-01  8.09883835e-01  8.11705178e-01
  8.13181213e-01  8.14677411e-01  8.18551215e-01  8.19826389e-01
  8.23097161e-01  8.26348153e-01  8.27093751e-01  8.29960652e-01
  8.31176326e-01  8.34943966e-01  8.37599022e-01  8.39292333e-01
  8.42098220e-01  8.43360831e-01  8.43882568e-01  8.49899738e-01
  8.51644069e-01  8.52518481e-01  8.56155098e-01  8.58106474e-01
  8.61887870e-01  8.62402473e-01  8.64298100e-01  8.65170450e-01
  8.67973592e-01  8.71494709e-01  8.73528558e-01  8.76421648e-01
  8.77785315e-01  8.78999741e-01  8.81635300e-01  8.83468945e-01
  8.83639919e-01  8.89591852e-01  8.90655068e-01  8.93716958e-01
  8.95237996e-01  8.96872562e-01  8.98595982e-01  9.02191018e-01
  9.02636219e-01  9.05661850e-01  9.07681744e-01  9.08244783e-01
  9.10408619e-01  9.12427269e-01  9.15544023e-01  9.17005178e-01
  9.18682913e-01  9.20070076e-01  9.21437800e-01  9.22693705e-01
  9.26735558e-01  9.27621961e-01  9.29580637e-01  9.30948019e-01
  9.32152468e-01  9.33240980e-01  9.34857818e-01  9.39158660e-01
  9.41494694e-01  9.43209165e-01  9.45197610e-01  9.48535432e-01
  9.51857374e-01  9.52537198e-01  9.55852324e-01  9.57898391e-01
  9.60625185e-01  9.62217826e-01  9.64889094e-01  9.65911461e-01
  9.66927604e-01  9.69218134e-01  9.72437942e-01  9.74577712e-01
  9.75987754e-01  9.80255998e-01  9.83126837e-01  9.85966531e-01
  9.86865894e-01  9.88706406e-01  9.92533955e-01  9.94651185e-01
  9.95857006e-01  9.97102471e-01  9.99655604e-01  1.00216530e+00
  1.00384202e+00  1.00642076e+00  1.00712916e+00  1.00784209e+00
  1.00961292e+00  1.01342241e+00  1.01453349e+00  1.01793334e+00
  1.02087645e+00  1.02394899e+00  1.02647755e+00  1.02668595e+00
  1.02913615e+00  1.03065534e+00  1.03195457e+00  1.03600927e+00
  1.03932525e+00  1.04027405e+00  1.04405313e+00  1.04447989e+00
  1.04571511e+00  1.04834658e+00  1.04925061e+00  1.05302677e+00
  1.05487275e+00  1.05803492e+00  1.05974085e+00  1.06063537e+00
  1.06133250e+00  1.06248204e+00  1.06379262e+00  1.06767356e+00
  1.06961026e+00  1.07024215e+00  1.07261377e+00  1.07562490e+00
  1.07678341e+00  1.07893777e+00  1.08146052e+00  1.08251748e+00
  1.08491954e+00  1.08766357e+00  1.08864025e+00  1.09147481e+00
  1.09309024e+00  1.09509212e+00  1.09889751e+00  1.10028935e+00
  1.10269529e+00  1.10698298e+00  1.10764568e+00  1.11190771e+00
  1.11360477e+00  1.11652010e+00  1.11907384e+00  1.12109479e+00
  1.12381293e+00  1.12673250e+00  1.12870102e+00  1.12936893e+00
  1.13263363e+00  1.13643256e+00  1.13774519e+00  1.14264668e+00
  1.14587942e+00  1.15037372e+00  1.15113967e+00  1.15323509e+00
  1.15535372e+00  1.15790263e+00  1.16053046e+00  1.16202255e+00
  1.16454261e+00  1.16881268e+00  1.17053409e+00  1.17194458e+00
  1.17573245e+00  1.17818200e+00  1.18161133e+00  1.18182744e+00
  1.18448357e+00  1.18763214e+00  1.18946509e+00  1.19179118e+00
  1.19342469e+00  1.19815866e+00  1.19900738e+00  1.20201602e+00
  1.20470670e+00  1.20873114e+00  1.21440246e+00  1.21462117e+00
  1.21643593e+00  1.21759568e+00  1.21965814e+00  1.22304968e+00
  1.22547742e+00  1.22855721e+00  1.22953187e+00  1.23211665e+00
  1.23274915e+00  1.23482180e+00  1.24034213e+00  1.24208889e+00
  1.24235265e+00  1.24580288e+00  1.24781999e+00  1.25180528e+00
  1.25460634e+00  1.25680107e+00  1.25973523e+00  1.26525790e+00
  1.26700776e+00  1.26827150e+00  1.27101133e+00  1.27247289e+00
  1.27541638e+00  1.27814229e+00  1.27976632e+00  1.28489790e+00
  1.28822634e+00  1.28993646e+00  1.29061122e+00  1.29405415e+00
  1.29601615e+00  1.29984964e+00  1.30110548e+00  1.30347309e+00
  1.30534506e+00  1.30638094e+00  1.30866108e+00  1.30935200e+00
  1.31166004e+00  1.31620232e+00  1.31946177e+00  1.32065569e+00
  1.32127190e+00  1.32328973e+00  1.32631467e+00  1.32835528e+00
  1.33043709e+00  1.33317393e+00  1.33744314e+00  1.34217244e+00
  1.34350457e+00  1.34513797e+00  1.34995090e+00  1.35410496e+00
  1.35573859e+00  1.35836140e+00  1.36286914e+00  1.36734974e+00
  1.36882602e+00  1.37139614e+00  1.37484352e+00  1.37955439e+00
  1.38317831e+00  1.39006802e+00  1.39604330e+00  1.39698630e+00
  1.39879157e+00  1.40391324e+00  1.40738313e+00  1.41049474e+00
  1.41352470e+00  1.41528216e+00  1.41674511e+00  1.41908792e+00
  1.42486837e+00  1.42961358e+00  1.43227479e+00  1.43537859e+00
  1.44164248e+00  1.44467571e+00  1.44577962e+00  1.44932605e+00
  1.45601382e+00  1.45798496e+00  1.45945713e+00  1.46418320e+00
  1.46513112e+00  1.47218861e+00  1.47668290e+00  1.47867598e+00
  1.48068622e+00  1.48563854e+00  1.49099296e+00  1.49215854e+00
  1.49455773e+00  1.49928850e+00  1.51064762e+00  1.51276071e+00
  1.51898008e+00  1.52084039e+00  1.53177309e+00  1.53653743e+00
  1.53969773e+00  1.54249145e+00  1.54926322e+00  1.55146977e+00
  1.55788887e+00  1.56200813e+00  1.56827127e+00  1.57126564e+00
  1.58123470e+00  1.58711152e+00  1.59332053e+00  1.59907353e+00
  1.60467333e+00  1.62350246e+00  1.62428989e+00  1.62862357e+00
  1.64623419e+00  1.64836080e+00  1.66240229e+00  1.67362874e+00
  1.68116738e+00  1.68972068e+00  1.70111839e+00  1.70824048e+00
  1.71683410e+00  1.74494707e+00  1.76804314e+00  1.80434892e+00
  1.86953082e+00  1.89742375e+00  1.92272431e+00  1.95511160e+00
  1.98253470e+00  2.00431583e+00  2.06919897e+00  2.12029557e+00
  2.16739024e+00  2.24876581e+00  2.28626393e+00  2.34787849e+00
  2.40983042e+00  2.43227375e+00  2.47748887e+00  2.48264875e+00
  2.51552357e+00  2.54268627e+00  2.61843289e+00  2.66778514e+00
  2.69141732e+00  2.71179817e+00  2.78334782e+00  2.80835979e+00
  2.82101415e+00  2.86481748e+00  2.86795707e+00  2.89166081e+00
  2.97249805e+00  2.99691624e+00  3.05511093e+00  3.09521097e+00
  3.11461628e+00  3.12514686e+00  3.17074394e+00  3.17738393e+00
  3.19383553e+00  3.21613097e+00  3.28485481e+00  3.28852521e+00
  3.30950074e+00  3.31524586e+00  3.32209651e+00  3.32936460e+00
  3.34016148e+00  3.37133793e+00  3.39248041e+00  3.41066569e+00
  3.41157896e+00  3.44020420e+00  3.45757630e+00  3.46251911e+00
  3.46433232e+00  3.49124156e+00  3.49841220e+00  3.51610879e+00
  3.51988015e+00  3.53444336e+00  3.54469060e+00  3.55005543e+00
  3.56369210e+00  3.57840746e+00  3.60339962e+00  3.61193655e+00
  3.63587289e+00  3.65981770e+00  3.68251514e+00  3.68701967e+00
  3.69670948e+00  3.71533658e+00  3.73457627e+00  3.74217498e+00
  3.76348078e+00  3.77072894e+00  3.79532300e+00  3.79559980e+00
  3.84606580e+00  3.84799652e+00  3.88685513e+00  3.91751581e+00
  3.94839485e+00  3.94945015e+00  3.97028996e+00  4.01476123e+00
  4.01892557e+00  4.03758094e+00  4.04762742e+00  4.07095048e+00
  4.08950519e+00  4.13425796e+00  4.14820508e+00  4.16882584e+00
  4.24220539e+00  4.27563127e+00  4.29084884e+00  4.29529585e+00
  4.38108768e+00  4.39056023e+00  4.41846323e+00  4.43193950e+00
  4.49972333e+00  4.50842324e+00  4.51112652e+00  4.52400724e+00
  4.64595926e+00  4.67408928e+00  4.67623024e+00  4.72772584e+00
  4.77813148e+00  4.82189262e+00  4.83321481e+00  4.93658530e+00
  5.00701354e+00  5.04706128e+00  5.07850839e+00  5.13400133e+00
  5.17730604e+00  5.31703540e+00  5.32358404e+00  5.38760574e+00
  5.43020305e+00  5.48975912e+00  5.49271221e+00  5.52245135e+00
  5.57626508e+00  5.60288337e+00  5.60443720e+00  5.67707280e+00
  5.74531291e+00  5.75533991e+00  5.83916203e+00  5.87522473e+00
  5.97988058e+00  5.98900690e+00  6.08160835e+00  6.10933804e+00
  6.11035946e+00  6.13357746e+00  6.19913232e+00  6.20332097e+00
  6.27621827e+00  6.38509496e+00  6.44032674e+00  6.46039002e+00
  6.47986654e+00  6.58924324e+00  6.64022309e+00  6.71823188e+00
  6.80078806e+00  6.85620343e+00  6.89880356e+00  6.97821940e+00
  7.00627246e+00  7.03845411e+00  7.10399088e+00  7.20746070e+00
  7.23170753e+00  7.30086812e+00  7.35172440e+00  7.36471908e+00
  7.43176063e+00  7.47220290e+00  7.53077819e+00  7.53169327e+00
  7.75420757e+00  7.76816596e+00  7.93955562e+00  8.00803096e+00
  8.10520107e+00  8.44689058e+00  1.12854221e+01  1.31557739e+01
  1.33845922e+01  1.41117473e+01  1.58950625e+01  1.75519122e+01]
    CPU time for vj and vk   2591.17 sec, wall time     81.19 sec
E1 = -2303.2321147916796  E_coul = 981.081076085536
cycle= 3 E= -519.342759856093  delta_E= -0.174  |g|= 0.134  |ddm|= 3.52
    CPU time for cycle= 3   2596.59 sec, wall time     81.50 sec
diis-norm(errvec)=0.949811
diis-c [-0.44324284  0.05525955  0.17645206  0.76828839]
  HOMO = -0.109564520886949  LUMO = -0.0139417432201754
  mo_energy =
[-2.06547913e+01 -2.06539882e+01 -2.06071011e+01 -1.14217489e+01
 -1.12941634e+01 -1.12930521e+01 -2.45042652e+00 -2.44466481e+00
 -2.44450048e+00 -2.44389629e+00 -2.44289975e+00 -2.44216253e+00
 -2.44132444e+00 -2.44099084e+00 -2.43990898e+00 -2.43414838e+00
 -2.43403981e+00 -2.43378411e+00 -2.43102813e+00 -2.42893507e+00
 -2.42778078e+00 -2.42466480e+00 -2.42251261e+00 -2.41714969e+00
 -2.41131139e+00 -2.41083961e+00 -2.40112648e+00 -2.39455032e+00
 -2.38250041e+00 -2.38147011e+00 -1.63164923e+00 -1.48604051e+00
 -1.46647332e+00 -1.12489889e+00 -9.81022768e-01 -8.94555651e-01
 -8.27414543e-01 -8.06020327e-01 -7.46578715e-01 -7.20788919e-01
 -6.82087665e-01 -6.75153658e-01 -6.09164620e-01 -5.78522239e-01
 -5.43574307e-01 -5.28278664e-01 -5.01568315e-01 -3.03878703e-01
 -2.65566759e-01 -2.57884300e-01 -2.11744035e-01 -1.98352172e-01
 -1.89867551e-01 -1.74720590e-01 -1.48553030e-01 -1.45692543e-01
 -1.34326188e-01 -1.27788753e-01 -1.09564521e-01 -1.39417432e-02
 -4.36325156e-03 -4.12439314e-03  1.28059419e-03  5.00691645e-03
  8.54761255e-03  1.29742984e-02  1.71472231e-02  1.86306755e-02
  1.98480030e-02  2.13583539e-02  2.50980986e-02  3.04663986e-02
  3.35316426e-02  3.45052630e-02  3.60472820e-02  3.91345567e-02
  4.04370445e-02  4.30373853e-02  4.50485147e-02  4.75265842e-02
  4.83847293e-02  5.12708047e-02  5.55030408e-02  5.56918462e-02
  5.71263622e-02  5.92301352e-02  6.12734582e-02  6.33536214e-02
  6.45882365e-02  6.50825568e-02  6.61973070e-02  6.64543999e-02
  7.01424291e-02  7.01495678e-02  7.04320459e-02  7.13107561e-02
  7.44682692e-02  7.57444182e-02  7.62350889e-02  7.76723477e-02
  7.88627352e-02  8.14878712e-02  8.38509666e-02  8.48714491e-02
  8.65016975e-02  8.69825853e-02  8.92415365e-02  9.02170856e-02
  9.22231352e-02  9.27815856e-02  9.60558304e-02  9.61526107e-02
  9.73226824e-02  9.86767916e-02  1.01627429e-01  1.02909328e-01
  1.03559272e-01  1.05120145e-01  1.05998827e-01  1.07110878e-01
  1.08408710e-01  1.10011526e-01  1.10780177e-01  1.11150817e-01
  1.13782233e-01  1.16457396e-01  1.17024415e-01  1.18067564e-01
  1.19788059e-01  1.20986467e-01  1.23113952e-01  1.24568592e-01
  1.27115219e-01  1.27447929e-01  1.28545262e-01  1.32054904e-01
  1.33128841e-01  1.33735848e-01  1.34691815e-01  1.36330255e-01
  1.37499389e-01  1.39868181e-01  1.40470002e-01  1.41445312e-01
  1.43236258e-01  1.44587117e-01  1.45491279e-01  1.47399353e-01
  1.49958559e-01  1.51610776e-01  1.53172031e-01  1.57884558e-01
  1.59686325e-01  1.62870116e-01  1.64392607e-01  1.67144568e-01
  1.68849447e-01  1.69980067e-01  1.71950978e-01  1.73245167e-01
  1.73699434e-01  1.77046105e-01  1.79269712e-01  1.80489610e-01
  1.81472447e-01  1.84516477e-01  1.85283116e-01  1.87984006e-01
  1.89319754e-01  1.95166469e-01  1.96470148e-01  1.96853475e-01
  1.98450711e-01  2.00182945e-01  2.02944670e-01  2.03535608e-01
  2.06901257e-01  2.07900089e-01  2.09363817e-01  2.09621160e-01
  2.11076120e-01  2.13430778e-01  2.14240393e-01  2.15941401e-01
  2.16765901e-01  2.17614869e-01  2.18319585e-01  2.22838707e-01
  2.23953656e-01  2.24763927e-01  2.26518990e-01  2.27396698e-01
  2.29160562e-01  2.30380325e-01  2.32183339e-01  2.33148897e-01
  2.35127585e-01  2.36566869e-01  2.38440646e-01  2.40024526e-01
  2.41910593e-01  2.43517693e-01  2.44393691e-01  2.47687569e-01
  2.49685030e-01  2.51218405e-01  2.55672137e-01  2.56953841e-01
  2.58182371e-01  2.58656213e-01  2.61939763e-01  2.62378550e-01
[...]
  1.51355476e+00  1.51634666e+00  1.52745168e+00  1.53188987e+00
  1.53532746e+00  1.53889740e+00  1.54911169e+00  1.55655934e+00
  1.56087432e+00  1.56207907e+00  1.56980743e+00  1.57180704e+00
  1.57784367e+00  1.57910325e+00  1.58785135e+00  1.59011558e+00
  1.60034745e+00  1.60591286e+00  1.61386952e+00  1.61870994e+00
  1.62419636e+00  1.64448410e+00  1.64689192e+00  1.64860197e+00
  1.66618250e+00  1.66926566e+00  1.68289813e+00  1.69453928e+00
  1.70071912e+00  1.70932092e+00  1.72210548e+00  1.73017274e+00
  1.73751189e+00  1.76652718e+00  1.78925131e+00  1.82610908e+00
  1.88792570e+00  1.91853259e+00  1.94440087e+00  1.97286129e+00
  2.00173134e+00  2.02403033e+00  2.08834938e+00  2.13784626e+00
  2.18477862e+00  2.26871660e+00  2.30487861e+00  2.36543292e+00
  2.43011689e+00  2.45349715e+00  2.49583625e+00  2.50782713e+00
  2.53623382e+00  2.56610757e+00  2.64066700e+00  2.69416195e+00
  2.71554970e+00  2.73702563e+00  2.80657401e+00  2.83207801e+00
  2.84773852e+00  2.88917284e+00  2.89295673e+00  2.91345045e+00
  2.99498397e+00  3.02542361e+00  3.08142317e+00  3.12142333e+00
  3.14002897e+00  3.14943997e+00  3.19330895e+00  3.19643602e+00
  3.21981145e+00  3.24290002e+00  3.30861234e+00  3.31398777e+00
  3.32704053e+00  3.33778521e+00  3.34155196e+00  3.35084648e+00
  3.36508925e+00  3.40021610e+00  3.40817302e+00  3.42442918e+00
  3.43560063e+00  3.46295598e+00  3.47530281e+00  3.48644666e+00
  3.48776782e+00  3.49809640e+00  3.51041665e+00  3.53695296e+00
  3.54160483e+00  3.55041191e+00  3.55384636e+00  3.56560465e+00
  3.58514191e+00  3.59291748e+00  3.61704918e+00  3.62801095e+00
  3.64874340e+00  3.68517410e+00  3.69548851e+00  3.71245250e+00
  3.72045460e+00  3.72952402e+00  3.75257340e+00  3.75713052e+00
  3.78887770e+00  3.79427885e+00  3.81746412e+00  3.82156216e+00
  3.87101454e+00  3.87223172e+00  3.91132264e+00  3.94364656e+00
  3.97230459e+00  3.97517116e+00  3.99618665e+00  4.03851534e+00
  4.04381547e+00  4.06139264e+00  4.07103002e+00  4.09407207e+00
  4.11389378e+00  4.15507337e+00  4.17361721e+00  4.19962357e+00
  4.26577689e+00  4.29911360e+00  4.31183843e+00  4.31929582e+00
  4.40483492e+00  4.41434909e+00  4.44340217e+00  4.45645750e+00
  4.52323017e+00  4.53236011e+00  4.53480758e+00  4.55023268e+00
  4.67076749e+00  4.69678528e+00  4.70441234e+00  4.74537680e+00
  4.79529579e+00  4.83952076e+00  4.85357324e+00  4.96114740e+00
  5.03111233e+00  5.06896760e+00  5.10228919e+00  5.15777130e+00
  5.19806926e+00  5.34016755e+00  5.34706477e+00  5.41330045e+00
  5.45478059e+00  5.51088056e+00  5.51309285e+00  5.54783728e+00
  5.59224728e+00  5.61873855e+00  5.62895573e+00  5.70091338e+00
  5.76979659e+00  5.77753764e+00  5.86339743e+00  5.89518244e+00
  6.00065736e+00  6.01222346e+00  6.10611280e+00  6.13026393e+00
  6.13693378e+00  6.15808290e+00  6.21940224e+00  6.22515861e+00
  6.30095262e+00  6.40646029e+00  6.46315217e+00  6.48269358e+00
  6.49945523e+00  6.60951480e+00  6.66311000e+00  6.73855168e+00
  6.81943757e+00  6.87645663e+00  6.91837058e+00  6.99339972e+00
  7.02030637e+00  7.05986145e+00  7.12803839e+00  7.22372389e+00
  7.24731799e+00  7.31830792e+00  7.36419321e+00  7.37722602e+00
  7.44515017e+00  7.48514632e+00  7.54403747e+00  7.54773236e+00
  7.76930863e+00  7.78126389e+00  7.95786884e+00  8.02203597e+00
  8.11913438e+00  8.47050545e+00  1.13056474e+01  1.31788585e+01
  1.33987935e+01  1.41390028e+01  1.59272383e+01  1.75862780e+01]
    CPU time for vj and vk   1794.41 sec, wall time     56.27 sec
E1 = -2301.915237028521  E_coul = 979.7460202041409
cycle= 49 E= -519.36093797433  delta_E= -2.56e-09  |g|= 8.01e-06  |ddm|= 0.000638
    CPU time for cycle= 49   1800.15 sec, wall time     56.58 sec
diis-norm(errvec)=6.58818e-05
diis-c [-3.62788705e-09  1.79529827e+00 -1.21059031e-02 -1.78121445e-01
  1.96758782e-01  4.46760184e-01 -7.79148613e-02 -1.15872449e+00
 -1.19505374e-02]
  HOMO = -0.111445269157348  LUMO = -0.00919256427984011
  mo_energy =
[-2.06449484e+01 -2.06449043e+01 -2.05795896e+01 -1.14490357e+01
 -1.13080712e+01 -1.13070206e+01 -2.44508249e+00 -2.44074187e+00
 -2.44057314e+00 -2.43957827e+00 -2.43918441e+00 -2.43743159e+00
 -2.43660194e+00 -2.43371612e+00 -2.43219517e+00 -2.43174164e+00
 -2.42956097e+00 -2.42920824e+00 -2.42682372e+00 -2.42550128e+00
 -2.42453730e+00 -2.42391622e+00 -2.42186605e+00 -2.41633583e+00
 -2.41631764e+00 -2.41172330e+00 -2.40565736e+00 -2.39402982e+00
 -2.39166036e+00 -2.38289357e+00 -1.63644873e+00 -1.48565155e+00
 -1.46917000e+00 -1.12922432e+00 -9.83678784e-01 -8.96225412e-01
 -8.30477378e-01 -8.04950462e-01 -7.48207071e-01 -7.21420867e-01
 -6.83561489e-01 -6.77929717e-01 -6.10331627e-01 -5.84147950e-01
 -5.41670197e-01 -5.26172011e-01 -5.04305800e-01 -3.00347420e-01
 -2.61454824e-01 -2.56868697e-01 -2.10971242e-01 -1.97680199e-01
 -1.89566984e-01 -1.73521175e-01 -1.51352197e-01 -1.47780880e-01
 -1.35705922e-01 -1.30884449e-01 -1.11445269e-01 -9.19256428e-03
 -4.30487902e-04  6.27204906e-04  4.63091106e-03  8.91093595e-03
  1.04003578e-02  1.63839935e-02  1.82068391e-02  2.00243507e-02
  2.12082644e-02  2.28874635e-02  2.55548217e-02  3.11781139e-02
  3.28184694e-02  3.50077638e-02  3.71285819e-02  3.99356701e-02
  4.18781169e-02  4.37269299e-02  4.61911297e-02  4.77846790e-02
  4.88246397e-02  5.22117686e-02  5.61013030e-02  5.70090726e-02
  5.82581912e-02  6.03840359e-02  6.25534906e-02  6.35336984e-02
  6.49480319e-02  6.59996441e-02  6.70427752e-02  6.80755743e-02
  7.01535741e-02  7.13942622e-02  7.15801353e-02  7.21070697e-02
  7.49581754e-02  7.55905097e-02  7.65130028e-02  7.80063855e-02
  7.91989772e-02  8.18705539e-02  8.40839357e-02  8.49595691e-02
  8.66949970e-02  8.72671532e-02  8.96366981e-02  9.09885901e-02
  9.28448984e-02  9.31118314e-02  9.64262587e-02  9.65523174e-02
  9.81104261e-02  1.00313594e-01  1.02924172e-01  1.04180373e-01
  1.04372252e-01  1.05636781e-01  1.06618585e-01  1.07639748e-01
  1.09171113e-01  1.10702964e-01  1.11204275e-01  1.12045114e-01
  1.14547455e-01  1.17334916e-01  1.17600630e-01  1.19705047e-01
  1.20654149e-01  1.21799508e-01  1.24253212e-01  1.25528823e-01
  1.27353650e-01  1.27503910e-01  1.29672822e-01  1.32014993e-01
  1.33922522e-01  1.34658370e-01  1.35180121e-01  1.36851968e-01
  1.38003374e-01  1.40098052e-01  1.41287596e-01  1.41491982e-01
  1.43795705e-01  1.45366656e-01  1.45753245e-01  1.48635870e-01
  1.50440472e-01  1.51540539e-01  1.54465361e-01  1.58344851e-01
  1.60138835e-01  1.63365477e-01  1.65088280e-01  1.68382268e-01
  1.69951914e-01  1.70336481e-01  1.72826300e-01  1.73952551e-01
  1.75064094e-01  1.78421518e-01  1.80496041e-01  1.81223697e-01
  1.82475512e-01  1.84387000e-01  1.85652369e-01  1.87712356e-01
  1.90317183e-01  1.95039768e-01  1.97372741e-01  1.98011566e-01
  1.99223546e-01  2.00160966e-01  2.04554036e-01  2.05350708e-01
  2.07703008e-01  2.09627820e-01  2.10512332e-01  2.12198407e-01
  2.12509510e-01  2.14574222e-01  2.15509916e-01  2.16366632e-01
  2.18255274e-01  2.19647315e-01  2.20266632e-01  2.24583774e-01
  2.24980759e-01  2.26754908e-01  2.28095177e-01  2.28323355e-01
  2.29295632e-01  2.31152085e-01  2.32891186e-01  2.34008344e-01
  2.35701677e-01  2.37386004e-01  2.39837454e-01  2.41000369e-01
  2.42406021e-01  2.44241722e-01  2.45966700e-01  2.48718985e-01
  2.51063063e-01  2.52672874e-01  2.56299894e-01  2.58421986e-01
  2.58881969e-01  2.60037120e-01  2.62799990e-01  2.63194645e-01
  2.68342883e-01  2.70735099e-01  2.73140869e-01  2.75554327e-01
  2.77091127e-01  2.79421968e-01  2.81031049e-01  2.83290625e-01
  2.85612902e-01  2.89308957e-01  2.90909063e-01  2.92747615e-01
  2.94566637e-01  2.97812437e-01  3.03223577e-01  3.08276888e-01
  3.08346398e-01  3.11933848e-01  3.15083217e-01  3.17194365e-01
  3.19111797e-01  3.23202779e-01  3.24313331e-01  3.27361472e-01
  3.28355664e-01  3.30792038e-01  3.32651832e-01  3.33428369e-01
  3.36309051e-01  3.38993982e-01  3.41253112e-01  3.44302233e-01
  3.44895021e-01  3.48114679e-01  3.50525346e-01  3.52901984e-01
  3.54906679e-01  3.56333365e-01  3.57587975e-01  3.60348922e-01
  3.61288694e-01  3.61842867e-01  3.63221624e-01  3.65279522e-01
  3.68299476e-01  3.68676671e-01  3.70047266e-01  3.72131768e-01
  3.73400456e-01  3.75316132e-01  3.76734834e-01  3.79932432e-01
  3.81926559e-01  3.86919803e-01  3.88512577e-01  3.92166861e-01
  3.95678331e-01  3.96741131e-01  4.00815835e-01  4.02744644e-01
  4.04746441e-01  4.05580998e-01  4.07940328e-01  4.09250463e-01
  4.13042090e-01  4.16861353e-01  4.17546225e-01  4.20267920e-01
  4.23367041e-01  4.26143271e-01  4.26597562e-01  4.28177772e-01
  4.29468943e-01  4.31527565e-01  4.32774649e-01  4.35113969e-01
  4.36905963e-01  4.39016021e-01  4.41647128e-01  4.45092680e-01
  4.45651194e-01  4.47805114e-01  4.48893867e-01  4.51615732e-01
  4.54119997e-01  4.55728780e-01  4.55845835e-01  4.58248674e-01
  4.59645970e-01  4.62163915e-01  4.63320802e-01  4.65348223e-01
  4.66854410e-01  4.67654354e-01  4.68615502e-01  4.69744815e-01
  4.72560439e-01  4.73701265e-01  4.74921620e-01  4.75656736e-01
  4.76275397e-01  4.80224443e-01  4.80979158e-01  4.82815506e-01
  4.83957477e-01  4.86183991e-01  4.88467001e-01  4.91810757e-01
  4.93970129e-01  4.94263055e-01  4.97063513e-01  4.98142032e-01
  4.99322855e-01  5.02544268e-01  5.02982081e-01  5.05682998e-01
  5.06552936e-01  5.07257692e-01  5.11756423e-01  5.12054974e-01
  5.13090197e-01  5.15564605e-01  5.18074957e-01  5.20084296e-01
  5.22941902e-01  5.24387500e-01  5.24889031e-01  5.28309930e-01
  5.30320534e-01  5.31879772e-01  5.33421155e-01  5.34681997e-01
  5.36467329e-01  5.37200458e-01  5.39248543e-01  5.40376840e-01
  5.44065433e-01  5.45047051e-01  5.47517121e-01  5.48896134e-01
  5.51735777e-01  5.52097867e-01  5.52888106e-01  5.55776672e-01
  5.57007500e-01  5.58183243e-01  5.60312959e-01  5.61525921e-01
  5.64504472e-01  5.66588384e-01  5.68540143e-01  5.69905434e-01
  5.71072200e-01  5.71838048e-01  5.74192735e-01  5.76560968e-01
  5.81522280e-01  5.82853314e-01  5.85237516e-01  5.90348429e-01
  5.90598170e-01  5.97902969e-01  5.99710516e-01  6.03157241e-01
  6.03416106e-01  6.05877731e-01  6.07563351e-01  6.12544966e-01
  6.13039976e-01  6.16651768e-01  6.17807738e-01  6.18852790e-01
  6.21650993e-01  6.24383960e-01  6.27076307e-01  6.30047966e-01
  6.33611644e-01  6.35268949e-01  6.36996393e-01  6.39937449e-01
  6.43146443e-01  6.45697369e-01  6.49697545e-01  6.52966685e-01
  6.56010960e-01  6.58147650e-01  6.59080471e-01  6.61009456e-01
  6.65095783e-01  6.66011032e-01  6.66744679e-01  6.69659862e-01
  6.74446720e-01  6.74953386e-01  6.79463682e-01  6.80734970e-01
  6.86470744e-01  6.87656956e-01  6.92570180e-01  6.93507942e-01
  6.96173944e-01  6.98773153e-01  7.02985014e-01  7.05206053e-01
  7.06956456e-01  7.10207960e-01  7.14797071e-01  7.16918624e-01
  7.18896296e-01  7.20788254e-01  7.24002034e-01  7.25875281e-01
  7.27891989e-01  7.28830466e-01  7.30907517e-01  7.33535058e-01
  7.36708129e-01  7.39849128e-01  7.40872379e-01  7.44888511e-01
  7.45689577e-01  7.47377269e-01  7.50652262e-01  7.53998599e-01
  7.54799114e-01  7.56322352e-01  7.60324753e-01  7.60465866e-01
  7.61460110e-01  7.66653336e-01  7.68046761e-01  7.69316724e-01
  7.70954701e-01  7.75739556e-01  7.78281666e-01  7.78970309e-01
  7.81213327e-01  7.83359380e-01  7.83777118e-01  7.85293209e-01
  7.91366440e-01  7.94128517e-01  7.96002705e-01  7.99957622e-01
  8.01958672e-01  8.03317487e-01  8.05174704e-01  8.05391297e-01
  8.09022348e-01  8.10968707e-01  8.13365377e-01  8.15673323e-01
  8.18698583e-01  8.21476061e-01  8.22849164e-01  8.25028502e-01
  8.25542795e-01  8.29191104e-01  8.30844193e-01  8.33580018e-01
  8.36221104e-01  8.37732701e-01  8.38879851e-01  8.40844745e-01
  8.43985669e-01  8.46475628e-01  8.50997125e-01  8.51771103e-01
  8.54352839e-01  8.57633440e-01  8.58666262e-01  8.62469351e-01
  8.63218520e-01  8.65279069e-01  8.67817229e-01  8.69974582e-01
  8.71761149e-01  8.74157964e-01  8.77382370e-01  8.78345889e-01
  8.81243103e-01  8.84295824e-01  8.84987160e-01  8.89069006e-01
  8.89523371e-01  8.91192824e-01  8.94630734e-01  8.96083607e-01
  8.96806868e-01  9.01729608e-01  9.02953308e-01  9.04893328e-01
  9.08010485e-01  9.08685438e-01  9.11466832e-01  9.14211793e-01
  9.15756010e-01  9.17786404e-01  9.19015168e-01  9.20861220e-01
  9.22738764e-01  9.25959480e-01  9.28332652e-01  9.28508476e-01
  9.31425112e-01  9.32677881e-01  9.34155185e-01  9.36418381e-01
  9.38282397e-01  9.39271049e-01  9.41902559e-01  9.42844607e-01
  9.44123731e-01  9.46455519e-01  9.47050791e-01  9.50305386e-01
  9.54274703e-01  9.56438704e-01  9.58152438e-01  9.61068975e-01
  9.63600294e-01  9.64849434e-01  9.68376062e-01  9.69997681e-01
  9.72738948e-01  9.75284817e-01  9.77215981e-01  9.78364793e-01
  9.79416174e-01  9.82359935e-01  9.84819121e-01  9.85309755e-01
  9.89726666e-01  9.91682736e-01  9.94970769e-01  9.98062945e-01
  9.99191245e-01  1.00098599e+00  1.00306390e+00  1.00794655e+00
  1.00876758e+00  1.00972544e+00  1.01256506e+00  1.01417942e+00
  1.01662501e+00  1.01902516e+00  1.01980059e+00  1.02157365e+00
  1.02270500e+00  1.02743277e+00  1.02780690e+00  1.03043819e+00
  1.03350026e+00  1.03472111e+00  1.03916427e+00  1.04012274e+00
  1.04108403e+00  1.04391111e+00  1.04501397e+00  1.04911209e+00
  1.04924593e+00  1.05462182e+00  1.05519696e+00  1.05636920e+00
  1.05817045e+00  1.06031061e+00  1.06168402e+00  1.06580372e+00
  1.06678659e+00  1.06848821e+00  1.07101404e+00  1.07303021e+00
  1.07408140e+00  1.07555765e+00  1.07730689e+00  1.08004087e+00
  1.08181031e+00  1.08333300e+00  1.08593698e+00  1.08870100e+00
  1.08902852e+00  1.09119370e+00  1.09441733e+00  1.09543921e+00
  1.09683385e+00  1.10194916e+00  1.10201867e+00  1.10257679e+00
  1.10565003e+00  1.10932953e+00  1.11287198e+00  1.11412158e+00
  1.11578228e+00  1.11868716e+00  1.12058260e+00  1.12434687e+00
  1.12680833e+00  1.12985401e+00  1.13242964e+00  1.13350646e+00
  1.13947351e+00  1.14056241e+00  1.14138032e+00  1.14385914e+00
  1.14544750e+00  1.15087767e+00  1.15109745e+00  1.15574831e+00
  1.15757538e+00  1.16180808e+00  1.16372033e+00  1.16550845e+00
  1.16681964e+00  1.17083739e+00  1.17235883e+00  1.17483418e+00
  1.17705193e+00  1.18253096e+00  1.18302836e+00  1.18516628e+00
  1.18916360e+00  1.19195552e+00  1.19458539e+00  1.19621100e+00
  1.19679622e+00  1.20044226e+00  1.20361745e+00  1.20695846e+00
  1.20768436e+00  1.21145859e+00  1.21187734e+00  1.21734271e+00
  1.22004441e+00  1.22296048e+00  1.22775993e+00  1.22897228e+00
  1.23034241e+00  1.23230432e+00  1.23396934e+00  1.23689741e+00
  1.23933495e+00  1.24148219e+00  1.24209947e+00  1.24597926e+00
  1.24714461e+00  1.24912673e+00  1.25483167e+00  1.25555278e+00
  1.25893933e+00  1.26036751e+00  1.26333890e+00  1.26729432e+00
  1.27021990e+00  1.27201917e+00  1.27624792e+00  1.27950353e+00
  1.28216718e+00  1.28437992e+00  1.28698598e+00  1.28767805e+00
  1.29087435e+00  1.29216242e+00  1.29450977e+00  1.29943109e+00
  1.30136173e+00  1.30470018e+00  1.30606335e+00  1.30861200e+00
  1.31043699e+00  1.31184481e+00  1.31624346e+00  1.31776482e+00
  1.31931643e+00  1.32169401e+00  1.32281462e+00  1.32530162e+00
  1.32949894e+00  1.33250786e+00  1.33546632e+00  1.33585481e+00
  1.33786773e+00  1.33854624e+00  1.34217289e+00  1.34445358e+00
  1.34569545e+00  1.34826370e+00  1.35533295e+00  1.35956934e+00
  1.36087570e+00  1.36134215e+00  1.36793348e+00  1.36994103e+00
  1.37139573e+00  1.37512814e+00  1.38150891e+00  1.38410506e+00
  1.38578208e+00  1.38798094e+00  1.39145105e+00  1.39655821e+00
  1.40046545e+00  1.40618699e+00  1.41160479e+00  1.41278597e+00
  1.41683801e+00  1.42227424e+00  1.42480792e+00  1.42947975e+00
  1.42996226e+00  1.43236679e+00  1.43459160e+00  1.43909172e+00
  1.44485972e+00  1.44853096e+00  1.45054235e+00  1.45454063e+00
  1.45998793e+00  1.46364377e+00  1.46508215e+00  1.46758382e+00
  1.47410696e+00  1.47568484e+00  1.47688542e+00  1.48197602e+00
  1.48225408e+00  1.48817584e+00  1.49499692e+00  1.49772454e+00
  1.49886311e+00  1.50380616e+00  1.51004333e+00  1.51213884e+00
  1.51355467e+00  1.51634719e+00  1.52745214e+00  1.53189014e+00
  1.53532792e+00  1.53889763e+00  1.54911224e+00  1.55655963e+00
  1.56087442e+00  1.56207916e+00  1.56980762e+00  1.57180761e+00
  1.57784418e+00  1.57910398e+00  1.58785158e+00  1.59011604e+00
  1.60034773e+00  1.60591353e+00  1.61387038e+00  1.61871051e+00
  1.62419661e+00  1.64448471e+00  1.64689217e+00  1.64860210e+00
  1.66618317e+00  1.66926619e+00  1.68289826e+00  1.69453956e+00
  1.70071924e+00  1.70932108e+00  1.72210609e+00  1.73017311e+00
  1.73751263e+00  1.76652811e+00  1.78925154e+00  1.82610925e+00
  1.88792589e+00  1.91853273e+00  1.94440113e+00  1.97286183e+00
  2.00173183e+00  2.02403025e+00  2.08834933e+00  2.13784691e+00
  2.18477880e+00  2.26871684e+00  2.30487841e+00  2.36543282e+00
  2.43011694e+00  2.45349736e+00  2.49583634e+00  2.50782749e+00
  2.53623401e+00  2.56610766e+00  2.64066700e+00  2.69416211e+00
  2.71555018e+00  2.73702580e+00  2.80657439e+00  2.83207814e+00
  2.84773875e+00  2.88917307e+00  2.89295689e+00  2.91345052e+00
  2.99498422e+00  3.02542390e+00  3.08142334e+00  3.12142363e+00
  3.14002914e+00  3.14944013e+00  3.19330899e+00  3.19643616e+00
  3.21981160e+00  3.24290021e+00  3.30861242e+00  3.31398785e+00
  3.32703945e+00  3.33778526e+00  3.34155201e+00  3.35084676e+00
  3.36508946e+00  3.40021629e+00  3.40817193e+00  3.42442880e+00
  3.43560081e+00  3.46295646e+00  3.47530369e+00  3.48644683e+00
  3.48776803e+00  3.49809603e+00  3.51041685e+00  3.53695220e+00
  3.54160484e+00  3.55041209e+00  3.55384672e+00  3.56560425e+00
  3.58514184e+00  3.59291749e+00  3.61704894e+00  3.62801102e+00
  3.64874344e+00  3.68517428e+00  3.69548800e+00  3.71245259e+00
  3.72045493e+00  3.72952431e+00  3.75257371e+00  3.75713134e+00
  3.78887808e+00  3.79427899e+00  3.81746386e+00  3.82156234e+00
  3.87101469e+00  3.87223184e+00  3.91132278e+00  3.94364677e+00
  3.97230461e+00  3.97517054e+00  3.99618597e+00  4.03851493e+00
  4.04381552e+00  4.06139286e+00  4.07103016e+00  4.09407215e+00
  4.11389415e+00  4.15507584e+00  4.17361754e+00  4.19962439e+00
  4.26577698e+00  4.29911370e+00  4.31183830e+00  4.31929601e+00
  4.40483497e+00  4.41434928e+00  4.44340229e+00  4.45645767e+00
  4.52323017e+00  4.53236023e+00  4.53480772e+00  4.55023287e+00
  4.67076761e+00  4.69678552e+00  4.70441258e+00  4.74537802e+00
  4.79529622e+00  4.83952107e+00  4.85357306e+00  4.96114746e+00
  5.03111236e+00  5.06896742e+00  5.10228920e+00  5.15777138e+00
  5.19806942e+00  5.34016748e+00  5.34706468e+00  5.41330062e+00
  5.45478068e+00  5.51088082e+00  5.51309283e+00  5.54783739e+00
  5.59224837e+00  5.61873960e+00  5.62895607e+00  5.70091359e+00
  5.76979667e+00  5.77753761e+00  5.86339734e+00  5.89518255e+00
  6.00065706e+00  6.01222371e+00  6.10611264e+00  6.13026443e+00
  6.13693383e+00  6.15808276e+00  6.21940211e+00  6.22515842e+00
  6.30095257e+00  6.40645994e+00  6.46315190e+00  6.48269337e+00
  6.49945487e+00  6.60951462e+00  6.66310974e+00  6.73855180e+00
  6.81943795e+00  6.87645647e+00  6.91837048e+00  6.99340055e+00
  7.02030752e+00  7.05986195e+00  7.12803886e+00  7.22372348e+00
  7.24731756e+00  7.31830739e+00  7.36419253e+00  7.37722513e+00
  7.44514983e+00  7.48514719e+00  7.54403667e+00  7.54773258e+00
  7.76930854e+00  7.78126309e+00  7.95786945e+00  8.02203579e+00
  8.11913372e+00  8.47050580e+00  1.13056472e+01  1.31788587e+01
  1.33987924e+01  1.41390030e+01  1.59272386e+01  1.75862790e+01]
    CPU time for vj and vk   1797.48 sec, wall time     56.33 sec
E1 = -2301.9152261127356  E_coul = 979.7460092863483
cycle= 50 E= -519.360937976337  delta_E= -2.01e-09  |g|= 6.92e-06  |ddm|= 0.000667
    CPU time for cycle= 50   1803.12 sec, wall time     56.64 sec
    CPU time for scf_cycle 109474.83 sec, wall time   3439.60 sec
    CPU time for SCF 109474.89 sec, wall time   3439.60 sec
SCF not converged.
SCF energy = -519.360937976337
