#INFO: **** input file is /burg/ccce/users/eav2136/projects/batteries/01_mp2/hf_script.py ****
#!/usr/bin/env python3
from pyscf import gto, scf, mp
import sys
from fileutils import dump
import h5py

mol = gto.Mole()
mol.verbose = 10
mol.atom = f"geom_{sys.argv[1]}.xyz"
mol.basis = "ccpvtz"
mol.unit = "ANG"
mol.build()

mf = scf.RHF(mol)
# determine the output of mf.kernel()
mf.kernel()

conv = mf.converged
e_tot = mf.e_tot
mo_energy = mf.mo_energy
mo_coeff = mf.mo_coeff

dataout = {}
dataout["e_tot"] = e_tot
dataout["conv"] = conv
dump(dataout, f"data/hf_geom_{sys.argv[1]}.json")

with h5py.File(f"data/hf_geom_{sys.argv[1]}.h5", "w") as f:
    f.create_dataset("mo_energy", data=mo_energy)
    f.create_dataset("mo_coeff", data=mo_coeff)#INFO: ******************** input file end ********************


System: uname_result(system='Linux', node='g145', release='4.18.0-193.el8.x86_64', version='#1 SMP Fri Mar 27 14:35:58 UTC 2020', machine='x86_64')  Threads 32
Python 3.10.12 (main, Jul 29 2023, 11:27:27) [GCC 13.2.0]
numpy 1.25.1  scipy 1.10.1
Date: Fri Jan 19 11:49:58 2024
PySCF version 2.0.1
PySCF path  /burg/berkelbach/users/eav2136/builds/pyscf/projected-cvs/pyscf
GIT ORIG_HEAD 0bfbc692adf3ea63b8a509210433219cd1c472a2
GIT HEAD (branch projected-cvs) e14caaa2dddc538b9be2d86f01e5b456fc92da36

[ENV] PYSCF_TMPDIR /burg/ccce/users/eav2136/projects/batteries/01_mp2/tmp
[ENV] PYSCF_MAX_MEMORY 700000
[CONFIG] DEBUG = False
[CONFIG] MAX_MEMORY = 700000
[CONFIG] TMPDIR = /burg/ccce/users/eav2136/projects/batteries/01_mp2/tmp
[CONFIG] UNIT = angstrom
[CONFIG] VERBOSE = 3
[CONFIG] conf_file = None
[INPUT] verbose = 10
[INPUT] max_memory = 700000 
[INPUT] num. atoms = 38
[INPUT] num. electrons = 130
[INPUT] charge = 0
[INPUT] spin (= nelec alpha-beta = 2S) = 0
[INPUT] symmetry False subgroup None
[INPUT] Mole.unit = ANG
[INPUT]  1 C      4.889700000000   4.599650000000  10.258310000000 AA    9.240193831286   8.692078768856  19.385396400887 Bohr
[INPUT]  2 O      4.870170000000   4.245790000000   8.952570000000 AA    9.203287480073   8.023380282417  16.917905410997 Bohr
[INPUT]  3 C      5.310840000000   5.193710000000   8.233300000000 AA   10.036033091385   9.814689470415  15.558682101382 Bohr
[INPUT]  4 O      5.765780000000   6.111200000000   8.982240000000 AA   10.895745094495  11.548494292442  16.973973585113 Bohr
[INPUT]  5 C      5.774150000000   5.702340000000  10.272330000000 AA   10.911562102157  10.775860869152  19.411890361153 Bohr
[INPUT]  6 O      5.299720000000   5.216150000000   7.112960000000 AA   10.015019336880   9.857094924650  13.441546334986 Bohr
[INPUT]  7 H      5.212360000000   3.798320000000  10.814180000000 AA    9.849932862638   7.177784533458  20.435838461749 Bohr
[INPUT]  8 H      3.953110000000   4.871240000000  10.548100000000 AA    7.470295240279   9.205309487026  19.933020134525 Bohr
[INPUT]  9 H      5.464720000000   6.479910000000  10.867980000000 AA   10.326824147433  12.245255211830  20.537505727251 Bohr
[INPUT] 10 H      6.716790000000   5.418990000000  10.529430000000 AA   12.692893536217  10.240406971757  19.897738947779 Bohr
[INPUT] 11 Li     5.263950000000   5.263950000000   5.263950000000 AA    9.947423833404   9.947423833404   9.947423833404 Bohr
[INPUT] 12 Li     5.263950000000   1.754650000000   5.263950000000 AA    9.947423833404   3.315807944468   9.947423833404 Bohr
[INPUT] 13 Li     8.773250000000   5.263950000000   5.263950000000 AA   16.579039722340   9.947423833404   9.947423833404 Bohr
[INPUT] 14 Li     1.754650000000   5.263950000000   5.263950000000 AA    3.315807944468   9.947423833404   9.947423833404 Bohr
[INPUT] 15 Li     5.263950000000   8.773250000000   5.263950000000 AA    9.947423833404  16.579039722340   9.947423833404 Bohr
[INPUT] 16 Li     7.018600000000   3.509300000000   3.509300000000 AA   13.263231777872   6.631615888936   6.631615888936 Bohr
[INPUT] 17 Li     3.509300000000   3.509300000000   3.509300000000 AA    6.631615888936   6.631615888936   6.631615888936 Bohr
[INPUT] 18 Li     7.018600000000   7.018600000000   3.509300000000 AA   13.263231777872  13.263231777872   6.631615888936 Bohr
[INPUT] 19 Li     3.509300000000   7.018600000000   3.509300000000 AA    6.631615888936  13.263231777872   6.631615888936 Bohr
[INPUT] 20 Li     8.773250000000   1.754650000000   5.263950000000 AA   16.579039722340   3.315807944468   9.947423833404 Bohr
[INPUT] 21 Li     1.754650000000   1.754650000000   5.263950000000 AA    3.315807944468   3.315807944468   9.947423833404 Bohr
[INPUT] 22 Li     8.773250000000   8.773250000000   5.263950000000 AA   16.579039722340  16.579039722340   9.947423833404 Bohr
[INPUT] 23 Li     1.754650000000   8.773250000000   5.263950000000 AA    3.315807944468  16.579039722340   9.947423833404 Bohr
[INPUT] 24 Li     5.263950000000   5.263950000000   1.754650000000 AA    9.947423833404   9.947423833404   3.315807944468 Bohr
[INPUT] 25 Li     5.263950000000   1.754650000000   1.754650000000 AA    9.947423833404   3.315807944468   3.315807944468 Bohr
[INPUT] 26 Li     8.773250000000   5.263950000000   1.754650000000 AA   16.579039722340   9.947423833404   3.315807944468 Bohr
[INPUT] 27 Li     1.754650000000   5.263950000000   1.754650000000 AA    3.315807944468   9.947423833404   3.315807944468 Bohr
[INPUT] 28 Li     5.263950000000   8.773250000000   1.754650000000 AA    9.947423833404  16.579039722340   3.315807944468 Bohr
[INPUT] 29 Li     7.018600000000   0.000000000000   3.509300000000 AA   13.263231777872   0.000000000000   6.631615888936 Bohr
[INPUT] 30 Li     3.509300000000   0.000000000000   3.509300000000 AA    6.631615888936   0.000000000000   6.631615888936 Bohr
[INPUT] 31 Li     0.000000000000   3.509300000000   3.509300000000 AA    0.000000000000   6.631615888936   6.631615888936 Bohr
[INPUT] 32 Li     0.000000000000   7.018600000000   3.509300000000 AA    0.000000000000  13.263231777872   6.631615888936 Bohr
[INPUT] 33 Li     8.773250000000   1.754650000000   1.754650000000 AA   16.579039722340   3.315807944468   3.315807944468 Bohr
[INPUT] 34 Li     1.754650000000   1.754650000000   1.754650000000 AA    3.315807944468   3.315807944468   3.315807944468 Bohr
[INPUT] 35 Li     8.773250000000   8.773250000000   1.754650000000 AA   16.579039722340  16.579039722340   3.315807944468 Bohr
[INPUT] 36 Li     1.754650000000   8.773250000000   1.754650000000 AA    3.315807944468  16.579039722340   3.315807944468 Bohr
[INPUT] 37 Li     7.018600000000   3.509300000000   0.000000000000 AA   13.263231777872   6.631615888936   0.000000000000 Bohr
[INPUT] 38 Li     3.509300000000   3.509300000000   0.000000000000 AA    6.631615888936   6.631615888936   0.000000000000 Bohr
[INPUT] ---------------- BASIS SET ---------------- 
[INPUT] l, kappa, [nprim/nctr], expnt,             c_1 c_2 ...
[INPUT] O
[INPUT] 0    0    [8    /2   ]  15330             0.000508 -0.000115
                                2299              0.003929 -0.000895
                                522.4             0.020243 -0.004636
                                147.3             0.079181 -0.018724
                                47.55             0.230687 -0.058463
                                16.76             0.433118 -0.136463
                                6.207             0.35026 -0.17574
                                0.6882            -0.008154 0.603418
[INPUT] 0    0    [1    /1   ]  1.752                1
[INPUT] 0    0    [1    /1   ]  0.2384               1
[INPUT] 1    0    [3    /1   ]  34.46             0.015928
                                7.749             0.09974
                                2.28              0.310492
[INPUT] 1    0    [1    /1   ]  0.7156               1
[INPUT] 1    0    [1    /1   ]  0.214                1
[INPUT] 2    0    [1    /1   ]  2.314                1
[INPUT] 2    0    [1    /1   ]  0.645                1
[INPUT] 3    0    [1    /1   ]  1.428                1
[INPUT] H
[INPUT] 0    0    [3    /1   ]  33.87             0.006068
                                5.095             0.045308
                                1.159             0.202822
[INPUT] 0    0    [1    /1   ]  0.3258               1
[INPUT] 0    0    [1    /1   ]  0.1027               1
[INPUT] 1    0    [1    /1   ]  1.407                1
[INPUT] 1    0    [1    /1   ]  0.388                1
[INPUT] 2    0    [1    /1   ]  1.057                1
[INPUT] Li
[INPUT] 0    0    [9    /2   ]  5988              0.000133 -2.1e-05
                                898.9             0.001025 -0.000161
                                205.9             0.005272 -0.00082
                                59.24             0.020929 -0.003326
                                19.87             0.06634 -0.010519
                                7.406             0.165775 -0.028097
                                2.93              0.315038 -0.055936
                                1.189             0.393523 -0.099237
                                0.4798            0.19087 -0.112189
[INPUT] 0    0    [1    /1   ]  0.07509              1
[INPUT] 0    0    [1    /1   ]  0.02832              1
[INPUT] 1    0    [3    /1   ]  3.266             0.00863
                                0.6511            0.047538
                                0.1696            0.209772
[INPUT] 1    0    [1    /1   ]  0.05578              1
[INPUT] 1    0    [1    /1   ]  0.0205               1
[INPUT] 2    0    [1    /1   ]  0.1874               1
[INPUT] 2    0    [1    /1   ]  0.0801               1
[INPUT] 3    0    [1    /1   ]  0.1829               1
[INPUT] C
[INPUT] 0    0    [8    /2   ]  8236              0.000531 -0.000113
                                1235              0.004108 -0.000878
                                280.8             0.021087 -0.00454
                                79.27             0.081853 -0.018133
                                25.59             0.234817 -0.05576
                                8.997             0.434401 -0.126895
                                3.319             0.346129 -0.170352
                                0.3643            -0.008983 0.598684
[INPUT] 0    0    [1    /1   ]  0.9059               1
[INPUT] 0    0    [1    /1   ]  0.1285               1
[INPUT] 1    0    [3    /1   ]  18.71             0.014031
                                4.133             0.086866
                                1.2               0.290216
[INPUT] 1    0    [1    /1   ]  0.3827               1
[INPUT] 1    0    [1    /1   ]  0.1209               1
[INPUT] 2    0    [1    /1   ]  1.097                1
[INPUT] 2    0    [1    /1   ]  0.318                1
[INPUT] 3    0    [1    /1   ]  0.761                1

nuclear repulsion = 923.418327290605
number of shells = 330
number of NR pGTOs = 1520
number of NR cGTOs = 1076
basis = ccpvtz
ecp = {}
bas 0, expnt(s) = [8.236e+03 1.235e+03 2.808e+02 7.927e+01 2.559e+01 8.997e+00 3.319e+00
 3.643e-01]
bas 1, expnt(s) = [0.9059]
bas 2, expnt(s) = [0.1285]
bas 3, expnt(s) = [18.71   4.133  1.2  ]
bas 4, expnt(s) = [0.3827]
bas 5, expnt(s) = [0.1209]
bas 6, expnt(s) = [1.097]
bas 7, expnt(s) = [0.318]
bas 8, expnt(s) = [0.761]
bas 9, expnt(s) = [1.533e+04 2.299e+03 5.224e+02 1.473e+02 4.755e+01 1.676e+01 6.207e+00
 6.882e-01]
bas 10, expnt(s) = [1.752]
bas 11, expnt(s) = [0.2384]
bas 12, expnt(s) = [34.46   7.749  2.28 ]
bas 13, expnt(s) = [0.7156]
bas 14, expnt(s) = [0.214]
bas 15, expnt(s) = [2.314]
bas 16, expnt(s) = [0.645]
bas 17, expnt(s) = [1.428]
bas 18, expnt(s) = [8.236e+03 1.235e+03 2.808e+02 7.927e+01 2.559e+01 8.997e+00 3.319e+00
 3.643e-01]
bas 19, expnt(s) = [0.9059]
bas 20, expnt(s) = [0.1285]
bas 21, expnt(s) = [18.71   4.133  1.2  ]
bas 22, expnt(s) = [0.3827]
bas 23, expnt(s) = [0.1209]
bas 24, expnt(s) = [1.097]
bas 25, expnt(s) = [0.318]
bas 26, expnt(s) = [0.761]
bas 27, expnt(s) = [1.533e+04 2.299e+03 5.224e+02 1.473e+02 4.755e+01 1.676e+01 6.207e+00
 6.882e-01]
bas 28, expnt(s) = [1.752]
bas 29, expnt(s) = [0.2384]
bas 30, expnt(s) = [34.46   7.749  2.28 ]
bas 31, expnt(s) = [0.7156]
bas 32, expnt(s) = [0.214]
bas 33, expnt(s) = [2.314]
bas 34, expnt(s) = [0.645]
bas 35, expnt(s) = [1.428]
bas 36, expnt(s) = [8.236e+03 1.235e+03 2.808e+02 7.927e+01 2.559e+01 8.997e+00 3.319e+00
 3.643e-01]
bas 37, expnt(s) = [0.9059]
bas 38, expnt(s) = [0.1285]
bas 39, expnt(s) = [18.71   4.133  1.2  ]
bas 40, expnt(s) = [0.3827]
bas 41, expnt(s) = [0.1209]
bas 42, expnt(s) = [1.097]
bas 43, expnt(s) = [0.318]
bas 44, expnt(s) = [0.761]
bas 45, expnt(s) = [1.533e+04 2.299e+03 5.224e+02 1.473e+02 4.755e+01 1.676e+01 6.207e+00
 6.882e-01]
bas 46, expnt(s) = [1.752]
bas 47, expnt(s) = [0.2384]
bas 48, expnt(s) = [34.46   7.749  2.28 ]
bas 49, expnt(s) = [0.7156]
bas 50, expnt(s) = [0.214]
bas 51, expnt(s) = [2.314]
bas 52, expnt(s) = [0.645]
bas 53, expnt(s) = [1.428]
bas 54, expnt(s) = [33.87   5.095  1.159]
bas 55, expnt(s) = [0.3258]
bas 56, expnt(s) = [0.1027]
bas 57, expnt(s) = [1.407]
bas 58, expnt(s) = [0.388]
bas 59, expnt(s) = [1.057]
bas 60, expnt(s) = [33.87   5.095  1.159]
bas 61, expnt(s) = [0.3258]
bas 62, expnt(s) = [0.1027]
bas 63, expnt(s) = [1.407]
bas 64, expnt(s) = [0.388]
bas 65, expnt(s) = [1.057]
bas 66, expnt(s) = [33.87   5.095  1.159]
bas 67, expnt(s) = [0.3258]
bas 68, expnt(s) = [0.1027]
bas 69, expnt(s) = [1.407]
bas 70, expnt(s) = [0.388]
bas 71, expnt(s) = [1.057]
bas 72, expnt(s) = [33.87   5.095  1.159]
bas 73, expnt(s) = [0.3258]
bas 74, expnt(s) = [0.1027]
bas 75, expnt(s) = [1.407]
bas 76, expnt(s) = [0.388]
bas 77, expnt(s) = [1.057]
bas 78, expnt(s) = [5.988e+03 8.989e+02 2.059e+02 5.924e+01 1.987e+01 7.406e+00 2.930e+00
 1.189e+00 4.798e-01]
bas 79, expnt(s) = [0.07509]
bas 80, expnt(s) = [0.02832]
bas 81, expnt(s) = [3.266  0.6511 0.1696]
bas 82, expnt(s) = [0.05578]
bas 83, expnt(s) = [0.0205]
bas 84, expnt(s) = [0.1874]
bas 85, expnt(s) = [0.0801]
bas 86, expnt(s) = [0.1829]
bas 87, expnt(s) = [5.988e+03 8.989e+02 2.059e+02 5.924e+01 1.987e+01 7.406e+00 2.930e+00
 1.189e+00 4.798e-01]
bas 88, expnt(s) = [0.07509]
bas 89, expnt(s) = [0.02832]
bas 90, expnt(s) = [3.266  0.6511 0.1696]
bas 91, expnt(s) = [0.05578]
bas 92, expnt(s) = [0.0205]
bas 93, expnt(s) = [0.1874]
bas 94, expnt(s) = [0.0801]
bas 95, expnt(s) = [0.1829]
bas 96, expnt(s) = [5.988e+03 8.989e+02 2.059e+02 5.924e+01 1.987e+01 7.406e+00 2.930e+00
 1.189e+00 4.798e-01]
bas 97, expnt(s) = [0.07509]
bas 98, expnt(s) = [0.02832]
bas 99, expnt(s) = [3.266  0.6511 0.1696]
bas 100, expnt(s) = [0.05578]
bas 101, expnt(s) = [0.0205]
bas 102, expnt(s) = [0.1874]
bas 103, expnt(s) = [0.0801]
bas 104, expnt(s) = [0.1829]
bas 105, expnt(s) = [5.988e+03 8.989e+02 2.059e+02 5.924e+01 1.987e+01 7.406e+00 2.930e+00
 1.189e+00 4.798e-01]
bas 106, expnt(s) = [0.07509]
bas 107, expnt(s) = [0.02832]
bas 108, expnt(s) = [3.266  0.6511 0.1696]
bas 109, expnt(s) = [0.05578]
bas 110, expnt(s) = [0.0205]
bas 111, expnt(s) = [0.1874]
bas 112, expnt(s) = [0.0801]
bas 113, expnt(s) = [0.1829]
bas 114, expnt(s) = [5.988e+03 8.989e+02 2.059e+02 5.924e+01 1.987e+01 7.406e+00 2.930e+00
 1.189e+00 4.798e-01]
bas 115, expnt(s) = [0.07509]
bas 116, expnt(s) = [0.02832]
bas 117, expnt(s) = [3.266  0.6511 0.1696]
bas 118, expnt(s) = [0.05578]
bas 119, expnt(s) = [0.0205]
bas 120, expnt(s) = [0.1874]
bas 121, expnt(s) = [0.0801]
bas 122, expnt(s) = [0.1829]
bas 123, expnt(s) = [5.988e+03 8.989e+02 2.059e+02 5.924e+01 1.987e+01 7.406e+00 2.930e+00
 1.189e+00 4.798e-01]
bas 124, expnt(s) = [0.07509]
bas 125, expnt(s) = [0.02832]
bas 126, expnt(s) = [3.266  0.6511 0.1696]
bas 127, expnt(s) = [0.05578]
bas 128, expnt(s) = [0.0205]
bas 129, expnt(s) = [0.1874]
bas 130, expnt(s) = [0.0801]
bas 131, expnt(s) = [0.1829]
bas 132, expnt(s) = [5.988e+03 8.989e+02 2.059e+02 5.924e+01 1.987e+01 7.406e+00 2.930e+00
 1.189e+00 4.798e-01]
bas 133, expnt(s) = [0.07509]
bas 134, expnt(s) = [0.02832]
bas 135, expnt(s) = [3.266  0.6511 0.1696]
bas 136, expnt(s) = [0.05578]
bas 137, expnt(s) = [0.0205]
bas 138, expnt(s) = [0.1874]
bas 139, expnt(s) = [0.0801]
bas 140, expnt(s) = [0.1829]
bas 141, expnt(s) = [5.988e+03 8.989e+02 2.059e+02 5.924e+01 1.987e+01 7.406e+00 2.930e+00
 1.189e+00 4.798e-01]
bas 142, expnt(s) = [0.07509]
bas 143, expnt(s) = [0.02832]
bas 144, expnt(s) = [3.266  0.6511 0.1696]
bas 145, expnt(s) = [0.05578]
bas 146, expnt(s) = [0.0205]
bas 147, expnt(s) = [0.1874]
bas 148, expnt(s) = [0.0801]
bas 149, expnt(s) = [0.1829]
bas 150, expnt(s) = [5.988e+03 8.989e+02 2.059e+02 5.924e+01 1.987e+01 7.406e+00 2.930e+00
 1.189e+00 4.798e-01]
bas 151, expnt(s) = [0.07509]
bas 152, expnt(s) = [0.02832]
bas 153, expnt(s) = [3.266  0.6511 0.1696]
bas 154, expnt(s) = [0.05578]
bas 155, expnt(s) = [0.0205]
bas 156, expnt(s) = [0.1874]
bas 157, expnt(s) = [0.0801]
bas 158, expnt(s) = [0.1829]
bas 159, expnt(s) = [5.988e+03 8.989e+02 2.059e+02 5.924e+01 1.987e+01 7.406e+00 2.930e+00
 1.189e+00 4.798e-01]
bas 160, expnt(s) = [0.07509]
bas 161, expnt(s) = [0.02832]
bas 162, expnt(s) = [3.266  0.6511 0.1696]
bas 163, expnt(s) = [0.05578]
bas 164, expnt(s) = [0.0205]
bas 165, expnt(s) = [0.1874]
bas 166, expnt(s) = [0.0801]
bas 167, expnt(s) = [0.1829]
bas 168, expnt(s) = [5.988e+03 8.989e+02 2.059e+02 5.924e+01 1.987e+01 7.406e+00 2.930e+00
 1.189e+00 4.798e-01]
bas 169, expnt(s) = [0.07509]
bas 170, expnt(s) = [0.02832]
bas 171, expnt(s) = [3.266  0.6511 0.1696]
bas 172, expnt(s) = [0.05578]
bas 173, expnt(s) = [0.0205]
bas 174, expnt(s) = [0.1874]
bas 175, expnt(s) = [0.0801]
bas 176, expnt(s) = [0.1829]
bas 177, expnt(s) = [5.988e+03 8.989e+02 2.059e+02 5.924e+01 1.987e+01 7.406e+00 2.930e+00
 1.189e+00 4.798e-01]
bas 178, expnt(s) = [0.07509]
bas 179, expnt(s) = [0.02832]
bas 180, expnt(s) = [3.266  0.6511 0.1696]
bas 181, expnt(s) = [0.05578]
bas 182, expnt(s) = [0.0205]
bas 183, expnt(s) = [0.1874]
bas 184, expnt(s) = [0.0801]
bas 185, expnt(s) = [0.1829]
bas 186, expnt(s) = [5.988e+03 8.989e+02 2.059e+02 5.924e+01 1.987e+01 7.406e+00 2.930e+00
 1.189e+00 4.798e-01]
bas 187, expnt(s) = [0.07509]
bas 188, expnt(s) = [0.02832]
bas 189, expnt(s) = [3.266  0.6511 0.1696]
bas 190, expnt(s) = [0.05578]
bas 191, expnt(s) = [0.0205]
bas 192, expnt(s) = [0.1874]
bas 193, expnt(s) = [0.0801]
bas 194, expnt(s) = [0.1829]
bas 195, expnt(s) = [5.988e+03 8.989e+02 2.059e+02 5.924e+01 1.987e+01 7.406e+00 2.930e+00
 1.189e+00 4.798e-01]
bas 196, expnt(s) = [0.07509]
bas 197, expnt(s) = [0.02832]
bas 198, expnt(s) = [3.266  0.6511 0.1696]
bas 199, expnt(s) = [0.05578]
bas 200, expnt(s) = [0.0205]
bas 201, expnt(s) = [0.1874]
bas 202, expnt(s) = [0.0801]
bas 203, expnt(s) = [0.1829]
bas 204, expnt(s) = [5.988e+03 8.989e+02 2.059e+02 5.924e+01 1.987e+01 7.406e+00 2.930e+00
 1.189e+00 4.798e-01]
bas 205, expnt(s) = [0.07509]
bas 206, expnt(s) = [0.02832]
bas 207, expnt(s) = [3.266  0.6511 0.1696]
bas 208, expnt(s) = [0.05578]
bas 209, expnt(s) = [0.0205]
bas 210, expnt(s) = [0.1874]
bas 211, expnt(s) = [0.0801]
bas 212, expnt(s) = [0.1829]
bas 213, expnt(s) = [5.988e+03 8.989e+02 2.059e+02 5.924e+01 1.987e+01 7.406e+00 2.930e+00
 1.189e+00 4.798e-01]
bas 214, expnt(s) = [0.07509]
bas 215, expnt(s) = [0.02832]
bas 216, expnt(s) = [3.266  0.6511 0.1696]
bas 217, expnt(s) = [0.05578]
bas 218, expnt(s) = [0.0205]
bas 219, expnt(s) = [0.1874]
bas 220, expnt(s) = [0.0801]
bas 221, expnt(s) = [0.1829]
bas 222, expnt(s) = [5.988e+03 8.989e+02 2.059e+02 5.924e+01 1.987e+01 7.406e+00 2.930e+00
 1.189e+00 4.798e-01]
bas 223, expnt(s) = [0.07509]
bas 224, expnt(s) = [0.02832]
bas 225, expnt(s) = [3.266  0.6511 0.1696]
bas 226, expnt(s) = [0.05578]
bas 227, expnt(s) = [0.0205]
bas 228, expnt(s) = [0.1874]
bas 229, expnt(s) = [0.0801]
bas 230, expnt(s) = [0.1829]
bas 231, expnt(s) = [5.988e+03 8.989e+02 2.059e+02 5.924e+01 1.987e+01 7.406e+00 2.930e+00
 1.189e+00 4.798e-01]
bas 232, expnt(s) = [0.07509]
bas 233, expnt(s) = [0.02832]
bas 234, expnt(s) = [3.266  0.6511 0.1696]
bas 235, expnt(s) = [0.05578]
bas 236, expnt(s) = [0.0205]
bas 237, expnt(s) = [0.1874]
bas 238, expnt(s) = [0.0801]
bas 239, expnt(s) = [0.1829]
bas 240, expnt(s) = [5.988e+03 8.989e+02 2.059e+02 5.924e+01 1.987e+01 7.406e+00 2.930e+00
 1.189e+00 4.798e-01]
bas 241, expnt(s) = [0.07509]
bas 242, expnt(s) = [0.02832]
bas 243, expnt(s) = [3.266  0.6511 0.1696]
bas 244, expnt(s) = [0.05578]
bas 245, expnt(s) = [0.0205]
bas 246, expnt(s) = [0.1874]
bas 247, expnt(s) = [0.0801]
bas 248, expnt(s) = [0.1829]
bas 249, expnt(s) = [5.988e+03 8.989e+02 2.059e+02 5.924e+01 1.987e+01 7.406e+00 2.930e+00
 1.189e+00 4.798e-01]
bas 250, expnt(s) = [0.07509]
bas 251, expnt(s) = [0.02832]
bas 252, expnt(s) = [3.266  0.6511 0.1696]
bas 253, expnt(s) = [0.05578]
bas 254, expnt(s) = [0.0205]
bas 255, expnt(s) = [0.1874]
bas 256, expnt(s) = [0.0801]
bas 257, expnt(s) = [0.1829]
bas 258, expnt(s) = [5.988e+03 8.989e+02 2.059e+02 5.924e+01 1.987e+01 7.406e+00 2.930e+00
 1.189e+00 4.798e-01]
bas 259, expnt(s) = [0.07509]
bas 260, expnt(s) = [0.02832]
bas 261, expnt(s) = [3.266  0.6511 0.1696]
bas 262, expnt(s) = [0.05578]
bas 263, expnt(s) = [0.0205]
bas 264, expnt(s) = [0.1874]
bas 265, expnt(s) = [0.0801]
bas 266, expnt(s) = [0.1829]
bas 267, expnt(s) = [5.988e+03 8.989e+02 2.059e+02 5.924e+01 1.987e+01 7.406e+00 2.930e+00
 1.189e+00 4.798e-01]
bas 268, expnt(s) = [0.07509]
bas 269, expnt(s) = [0.02832]
bas 270, expnt(s) = [3.266  0.6511 0.1696]
bas 271, expnt(s) = [0.05578]
bas 272, expnt(s) = [0.0205]
bas 273, expnt(s) = [0.1874]
bas 274, expnt(s) = [0.0801]
bas 275, expnt(s) = [0.1829]
bas 276, expnt(s) = [5.988e+03 8.989e+02 2.059e+02 5.924e+01 1.987e+01 7.406e+00 2.930e+00
 1.189e+00 4.798e-01]
bas 277, expnt(s) = [0.07509]
bas 278, expnt(s) = [0.02832]
bas 279, expnt(s) = [3.266  0.6511 0.1696]
bas 280, expnt(s) = [0.05578]
bas 281, expnt(s) = [0.0205]
bas 282, expnt(s) = [0.1874]
bas 283, expnt(s) = [0.0801]
bas 284, expnt(s) = [0.1829]
bas 285, expnt(s) = [5.988e+03 8.989e+02 2.059e+02 5.924e+01 1.987e+01 7.406e+00 2.930e+00
 1.189e+00 4.798e-01]
bas 286, expnt(s) = [0.07509]
bas 287, expnt(s) = [0.02832]
bas 288, expnt(s) = [3.266  0.6511 0.1696]
bas 289, expnt(s) = [0.05578]
bas 290, expnt(s) = [0.0205]
bas 291, expnt(s) = [0.1874]
bas 292, expnt(s) = [0.0801]
bas 293, expnt(s) = [0.1829]
bas 294, expnt(s) = [5.988e+03 8.989e+02 2.059e+02 5.924e+01 1.987e+01 7.406e+00 2.930e+00
 1.189e+00 4.798e-01]
bas 295, expnt(s) = [0.07509]
bas 296, expnt(s) = [0.02832]
bas 297, expnt(s) = [3.266  0.6511 0.1696]
bas 298, expnt(s) = [0.05578]
bas 299, expnt(s) = [0.0205]
bas 300, expnt(s) = [0.1874]
bas 301, expnt(s) = [0.0801]
bas 302, expnt(s) = [0.1829]
bas 303, expnt(s) = [5.988e+03 8.989e+02 2.059e+02 5.924e+01 1.987e+01 7.406e+00 2.930e+00
 1.189e+00 4.798e-01]
bas 304, expnt(s) = [0.07509]
bas 305, expnt(s) = [0.02832]
bas 306, expnt(s) = [3.266  0.6511 0.1696]
bas 307, expnt(s) = [0.05578]
bas 308, expnt(s) = [0.0205]
bas 309, expnt(s) = [0.1874]
bas 310, expnt(s) = [0.0801]
bas 311, expnt(s) = [0.1829]
bas 312, expnt(s) = [5.988e+03 8.989e+02 2.059e+02 5.924e+01 1.987e+01 7.406e+00 2.930e+00
 1.189e+00 4.798e-01]
bas 313, expnt(s) = [0.07509]
bas 314, expnt(s) = [0.02832]
bas 315, expnt(s) = [3.266  0.6511 0.1696]
bas 316, expnt(s) = [0.05578]
bas 317, expnt(s) = [0.0205]
bas 318, expnt(s) = [0.1874]
bas 319, expnt(s) = [0.0801]
bas 320, expnt(s) = [0.1829]
bas 321, expnt(s) = [5.988e+03 8.989e+02 2.059e+02 5.924e+01 1.987e+01 7.406e+00 2.930e+00
 1.189e+00 4.798e-01]
bas 322, expnt(s) = [0.07509]
bas 323, expnt(s) = [0.02832]
bas 324, expnt(s) = [3.266  0.6511 0.1696]
bas 325, expnt(s) = [0.05578]
bas 326, expnt(s) = [0.0205]
bas 327, expnt(s) = [0.1874]
bas 328, expnt(s) = [0.0801]
bas 329, expnt(s) = [0.1829]
CPU time:         0.68
arg.atm = [[  6  20   1  23   0   0]
 [  8  24   1  27   0   0]
 [  6  28   1  31   0   0]
 [  8  32   1  35   0   0]
 [  6  36   1  39   0   0]
 [  8  40   1  43   0   0]
 [  1  44   1  47   0   0]
 [  1  48   1  51   0   0]
 [  1  52   1  55   0   0]
 [  1  56   1  59   0   0]
 [  3  60   1  63   0   0]
 [  3  64   1  67   0   0]
 [  3  68   1  71   0   0]
 [  3  72   1  75   0   0]
 [  3  76   1  79   0   0]
 [  3  80   1  83   0   0]
 [  3  84   1  87   0   0]
 [  3  88   1  91   0   0]
 [  3  92   1  95   0   0]
 [  3  96   1  99   0   0]
 [  3 100   1 103   0   0]
 [  3 104   1 107   0   0]
 [  3 108   1 111   0   0]
 [  3 112   1 115   0   0]
 [  3 116   1 119   0   0]
 [  3 120   1 123   0   0]
 [  3 124   1 127   0   0]
 [  3 128   1 131   0   0]
 [  3 132   1 135   0   0]
 [  3 136   1 139   0   0]
 [  3 140   1 143   0   0]
 [  3 144   1 147   0   0]
 [  3 148   1 151   0   0]
 [  3 152   1 155   0   0]
 [  3 156   1 159   0   0]
 [  3 160   1 163   0   0]
 [  3 164   1 167   0   0]
 [  3 168   1 171   0   0]]
arg.bas = [[  0   0   8 ... 279 287   0]
 [  0   0   1 ... 303 304   0]
 [  0   0   1 ... 305 306   0]
 ...
 [ 37   2   1 ... 273 274   0]
 [ 37   2   1 ... 275 276   0]
 [ 37   3   1 ... 277 278   0]]
arg.env = [ 0.00000000e+00  0.00000000e+00  0.00000000e+00  0.00000000e+00
  0.00000000e+00  0.00000000e+00  0.00000000e+00  0.00000000e+00
  0.00000000e+00  0.00000000e+00  0.00000000e+00  0.00000000e+00
  0.00000000e+00  0.00000000e+00  0.00000000e+00  0.00000000e+00
  0.00000000e+00  0.00000000e+00  0.00000000e+00  0.00000000e+00
  9.24019383e+00  8.69207877e+00  1.93853964e+01  0.00000000e+00
  9.20328748e+00  8.02338028e+00  1.69179054e+01  0.00000000e+00
  1.00360331e+01  9.81468947e+00  1.55586821e+01  0.00000000e+00
  1.08957451e+01  1.15484943e+01  1.69739736e+01  0.00000000e+00
  1.09115621e+01  1.07758609e+01  1.94118904e+01  0.00000000e+00
  1.00150193e+01  9.85709492e+00  1.34415463e+01  0.00000000e+00
  9.84993286e+00  7.17778453e+00  2.04358385e+01  0.00000000e+00
  7.47029524e+00  9.20530949e+00  1.99330201e+01  0.00000000e+00
  1.03268241e+01  1.22452552e+01  2.05375057e+01  0.00000000e+00
  1.26928935e+01  1.02404070e+01  1.98977389e+01  0.00000000e+00
  9.94742383e+00  9.94742383e+00  9.94742383e+00  0.00000000e+00
  9.94742383e+00  3.31580794e+00  9.94742383e+00  0.00000000e+00
  1.65790397e+01  9.94742383e+00  9.94742383e+00  0.00000000e+00
  3.31580794e+00  9.94742383e+00  9.94742383e+00  0.00000000e+00
  9.94742383e+00  1.65790397e+01  9.94742383e+00  0.00000000e+00
  1.32632318e+01  6.63161589e+00  6.63161589e+00  0.00000000e+00
  6.63161589e+00  6.63161589e+00  6.63161589e+00  0.00000000e+00
  1.32632318e+01  1.32632318e+01  6.63161589e+00  0.00000000e+00
  6.63161589e+00  1.32632318e+01  6.63161589e+00  0.00000000e+00
  1.65790397e+01  3.31580794e+00  9.94742383e+00  0.00000000e+00
  3.31580794e+00  3.31580794e+00  9.94742383e+00  0.00000000e+00
  1.65790397e+01  1.65790397e+01  9.94742383e+00  0.00000000e+00
  3.31580794e+00  1.65790397e+01  9.94742383e+00  0.00000000e+00
  9.94742383e+00  9.94742383e+00  3.31580794e+00  0.00000000e+00
  9.94742383e+00  3.31580794e+00  3.31580794e+00  0.00000000e+00
  1.65790397e+01  9.94742383e+00  3.31580794e+00  0.00000000e+00
  3.31580794e+00  9.94742383e+00  3.31580794e+00  0.00000000e+00
  9.94742383e+00  1.65790397e+01  3.31580794e+00  0.00000000e+00
  1.32632318e+01  0.00000000e+00  6.63161589e+00  0.00000000e+00
  6.63161589e+00  0.00000000e+00  6.63161589e+00  0.00000000e+00
  0.00000000e+00  6.63161589e+00  6.63161589e+00  0.00000000e+00
  0.00000000e+00  1.32632318e+01  6.63161589e+00  0.00000000e+00
  1.65790397e+01  3.31580794e+00  3.31580794e+00  0.00000000e+00
  3.31580794e+00  3.31580794e+00  3.31580794e+00  0.00000000e+00
  1.65790397e+01  1.65790397e+01  3.31580794e+00  0.00000000e+00
  3.31580794e+00  1.65790397e+01  3.31580794e+00  0.00000000e+00
  1.32632318e+01  6.63161589e+00  0.00000000e+00  0.00000000e+00
  6.63161589e+00  6.63161589e+00  0.00000000e+00  0.00000000e+00
  1.53300000e+04  2.29900000e+03  5.22400000e+02  1.47300000e+02
  4.75500000e+01  1.67600000e+01  6.20700000e+00  6.88200000e-01
  1.81067529e+00  3.37486577e+00  5.72265412e+00  8.66150357e+00
  1.08070276e+01  9.28179538e+00  3.56346173e+00 -1.59395830e-02
 -6.86527364e-01 -1.28759909e+00 -2.19507417e+00 -3.43047366e+00
 -4.58719692e+00 -4.89805685e+00 -2.99457591e+00  1.97563931e+00
  1.75200000e+00  3.84738459e+00  2.38400000e-01  8.61975084e-01
  3.44600000e+01  7.74900000e+00  2.28000000e+00  1.00262994e+01
  9.72213774e+00  6.55849668e+00  7.15600000e-01  1.92009319e+00
  2.14000000e-01  4.24621137e-01  2.31400000e+00  1.13283134e+01
  6.45000000e-01  1.21132000e+00  1.42800000e+00  4.39692268e+00
  3.38700000e+01  5.09500000e+00  1.15900000e+00  9.04334519e-01
  1.63100455e+00  2.40491525e+00  3.25800000e-01  1.08950276e+00
  1.02700000e-01  4.58345379e-01  1.40700000e+00  4.47045795e+00
  3.88000000e-01  8.93354953e-01  1.05700000e+00  2.87515071e+00
  5.98800000e+03  8.98900000e+02  2.05900000e+02  5.92400000e+01
  1.98700000e+01  7.40600000e+00  2.93000000e+00  1.18900000e+00
  4.79800000e-01  2.29069316e-01  4.25756548e-01  7.25056076e-01
  1.13074246e+00  1.57971158e+00  1.88304523e+00  1.78512072e+00
  1.13373211e+00  2.78411257e-01 -1.33552750e-01 -2.46934407e-01
 -4.16416863e-01 -6.63522613e-01 -9.24900580e-01 -1.17847379e+00
 -1.17034612e+00 -1.05567981e+00 -6.04251387e-01  7.50900000e-02
  3.62411193e-01  2.83200000e-02  1.74415453e-01  3.26600000e+00
  6.51100000e-01  1.69600000e-01  4.55280795e-01  3.34078737e-01
  2.74333054e-01  5.57800000e-02  7.90828897e-02  2.05000000e-02
  2.26295917e-02  1.87400000e-01  1.39275961e-01  8.01000000e-02
  3.14692425e-02  1.82900000e-01  4.31510332e-02  8.23600000e+03
  1.23500000e+03  2.80800000e+02  7.92700000e+01  2.55900000e+01
  8.99700000e+00  3.31900000e+00  3.64300000e-01  1.18480296e+00
  2.20874210e+00  3.73316324e+00  5.61216719e+00  6.89519583e+00
  5.82409515e+00  2.19663441e+00 -1.08712663e-02 -4.28969670e-01
 -8.03166571e-01 -1.36745981e+00 -2.11525239e+00 -2.78571299e+00
 -2.89453423e+00 -1.83934657e+00  1.23268730e+00  9.05900000e-01
  2.34598494e+00  1.28500000e-01  5.42241022e-01  1.87100000e+01
  4.13300000e+00  1.20000000e+00  4.47572721e+00  4.19627876e+00
  2.98800046e+00  3.82700000e-01  8.78127282e-01  1.20900000e-01
  2.07977938e-01  1.09700000e+00  3.06825171e+00  3.18000000e-01
  3.51379844e-01  7.61000000e-01  1.06690522e+00]
ecpbas  = []


******** <class 'pyscf.scf.hf.RHF'> ********
method = RHF
initial guess = minao
damping factor = 0
level_shift factor = 0
DIIS = <class 'pyscf.scf.diis.CDIIS'>
diis_start_cycle = 1
diis_space = 8
SCF conv_tol = 1e-09
SCF conv_tol_grad = None
SCF max_cycles = 50
direct_scf = True
direct_scf_tol = 1e-13
chkfile to save SCF result = /burg/ccce/users/eav2136/projects/batteries/01_mp2/tmp/tmp1kq144um
max_memory 700000 MB (current use 95 MB)
Set gradient conv threshold to 3.16228e-05
Nelec from initial guess = 129.99834820505257
    CPU time for vj and vk   4012.08 sec, wall time    125.89 sec
E1 = -2576.337289341364  E_coul = 1098.9220070809206
init E= -553.996954969839
cond(S) = 20884796.89430909
    CPU time for initialize scf   4024.98 sec, wall time    126.57 sec
  HOMO = -0.102468808847966  LUMO = -0.0970738836868877
  mo_energy =
[-2.08435044e+01 -2.07936024e+01 -2.07926086e+01 -1.13785486e+01
 -1.13528378e+01 -1.13477172e+01 -2.53076985e+00 -2.52316647e+00
 -2.52170041e+00 -2.51884346e+00 -2.51591486e+00 -2.51341008e+00
 -2.51321203e+00 -2.50905397e+00 -2.50457844e+00 -2.50372779e+00
 -2.50199215e+00 -2.50080629e+00 -2.50016831e+00 -2.49990304e+00
 -2.49968605e+00 -2.49935220e+00 -2.49921985e+00 -2.49884276e+00
 -2.49681699e+00 -2.49674415e+00 -2.49500375e+00 -2.49408693e+00
 -2.49369438e+00 -2.49246863e+00 -2.49211021e+00 -2.49171094e+00
 -2.48759532e+00 -2.48713418e+00 -2.16878263e+00 -1.79613144e+00
 -1.65779171e+00 -1.33706463e+00 -1.05209524e+00 -9.01426279e-01
 -8.03092104e-01 -7.85623747e-01 -6.88648446e-01 -6.67616845e-01
 -6.21645452e-01 -6.20051056e-01 -5.69903404e-01 -5.00331853e-01
 -4.94317498e-01 -4.39259904e-01 -4.30092389e-01 -4.14723174e-01
 -4.04067978e-01 -3.24614414e-01 -2.94469462e-01 -2.83754502e-01
 -2.42964021e-01 -2.35241279e-01 -1.86412058e-01 -1.69667827e-01
 -1.58529266e-01 -1.44063408e-01 -1.13026635e-01 -1.07983064e-01
 -1.02468809e-01 -9.70738837e-02 -7.27899982e-02 -6.64143178e-02
 -5.49654579e-02 -4.87131839e-02 -4.34040978e-02 -3.73383386e-02
 -2.98495494e-02 -2.47596635e-02 -2.40594786e-02 -2.25079101e-02
 -1.75421306e-02 -9.44197043e-03 -6.98022757e-03 -4.54345202e-03
 -2.06261387e-03  2.82542026e-03  1.07501251e-02  1.30051762e-02
  1.70359010e-02  2.04378457e-02  2.26659215e-02  2.84670379e-02
  2.91646751e-02  3.12657269e-02  3.44829552e-02  3.53273659e-02
  3.60580722e-02  3.88527372e-02  4.06487174e-02  4.19076598e-02
  4.36963515e-02  4.50881195e-02  4.53894852e-02  4.66642663e-02
  4.85788289e-02  4.99701666e-02  5.07308475e-02  5.17649456e-02
  5.48154759e-02  5.58100585e-02  5.63369233e-02  5.84708210e-02
  5.96516850e-02  6.09584122e-02  6.27620540e-02  6.36951648e-02
  6.50101926e-02  6.57890439e-02  6.79217302e-02  6.98320145e-02
  7.08167123e-02  7.11590682e-02  7.24346034e-02  7.37088486e-02
  7.76765279e-02  7.89056690e-02  7.98355790e-02  8.16718662e-02
  8.37752558e-02  8.41094367e-02  8.55843997e-02  8.57497638e-02
  8.65413550e-02  8.68994515e-02  8.74620906e-02  8.85860948e-02
  9.01197523e-02  9.13180840e-02  9.22691787e-02  9.45783921e-02
  9.65436162e-02  9.71146946e-02  9.76303895e-02  9.84818198e-02
  9.92267891e-02  1.00956215e-01  1.01480960e-01  1.02949315e-01
  1.04954236e-01  1.06130158e-01  1.07107637e-01  1.10511419e-01
  1.11807048e-01  1.13096312e-01  1.15100640e-01  1.16387757e-01
  1.17841708e-01  1.18277588e-01  1.19327485e-01  1.19545500e-01
  1.20308283e-01  1.21331882e-01  1.22312430e-01  1.24286220e-01
  1.25061128e-01  1.26117513e-01  1.27663640e-01  1.29002093e-01
  1.31080323e-01  1.31407480e-01  1.31918124e-01  1.33549498e-01
  1.34249409e-01  1.38588810e-01  1.38748681e-01  1.39808582e-01
  1.40398981e-01  1.42416303e-01  1.42724477e-01  1.44480614e-01
  1.44753159e-01  1.46864012e-01  1.48123413e-01  1.49650706e-01
  1.50210393e-01  1.51253046e-01  1.54191850e-01  1.54937225e-01
  1.55947209e-01  1.57206889e-01  1.59511581e-01  1.60996373e-01
  1.62256390e-01  1.63432605e-01  1.64543348e-01  1.66014799e-01
  1.66938897e-01  1.68075539e-01  1.69984234e-01  1.70305774e-01
  1.71396383e-01  1.72942599e-01  1.73763398e-01  1.74953970e-01
  1.79201282e-01  1.80994385e-01  1.82597319e-01  1.83679009e-01
  1.87289058e-01  1.89135190e-01  1.89515652e-01  1.90207129e-01
  1.90816674e-01  1.93321108e-01  1.93897946e-01  1.95126549e-01
  1.98446439e-01  1.99395426e-01  2.00930435e-01  2.01265801e-01
  2.02236199e-01  2.03321442e-01  2.04202368e-01  2.05021070e-01
  2.05596987e-01  2.06961743e-01  2.08423133e-01  2.09670376e-01
  2.11223921e-01  2.12552694e-01  2.13088598e-01  2.15060912e-01
  2.17203183e-01  2.18249286e-01  2.19806764e-01  2.20959250e-01
  2.22866434e-01  2.24682251e-01  2.26000869e-01  2.28780434e-01
  2.30701451e-01  2.30772770e-01  2.32998575e-01  2.35125932e-01
  2.38553741e-01  2.39981774e-01  2.41328407e-01  2.43470445e-01
  2.45148503e-01  2.48564602e-01  2.49878309e-01  2.52283061e-01
  2.53598400e-01  2.55006284e-01  2.55720213e-01  2.58896165e-01
  2.59960753e-01  2.62241884e-01  2.64269408e-01  2.64680242e-01
  2.67183637e-01  2.72305302e-01  2.72954960e-01  2.74501827e-01
  2.76348829e-01  2.78447368e-01  2.79479307e-01  2.80934543e-01
  2.83925333e-01  2.85737471e-01  2.87470253e-01  2.90219909e-01
  2.90607898e-01  2.91995643e-01  2.93426042e-01  2.94531055e-01
  2.96842726e-01  2.98789570e-01  3.01148471e-01  3.01943514e-01
  3.05710942e-01  3.07339327e-01  3.08296359e-01  3.11278069e-01
  3.13082270e-01  3.14299080e-01  3.16104444e-01  3.19257177e-01
  3.21016642e-01  3.23492540e-01  3.25006257e-01  3.28092365e-01
  3.31582207e-01  3.32322907e-01  3.35036324e-01  3.36551749e-01
  3.40114725e-01  3.41554754e-01  3.45226949e-01  3.45835720e-01
  3.46793005e-01  3.48765184e-01  3.50476640e-01  3.51007365e-01
  3.54878054e-01  3.56363383e-01  3.57191121e-01  3.59535796e-01
  3.60038725e-01  3.61845243e-01  3.63037379e-01  3.65377382e-01
  3.67392617e-01  3.68582870e-01  3.70421826e-01  3.73809635e-01
  3.74559313e-01  3.75313352e-01  3.78114841e-01  3.79333893e-01
  3.80488526e-01  3.83496970e-01  3.85072326e-01  3.87758729e-01
  3.88666540e-01  3.90985013e-01  3.94288427e-01  3.95958153e-01
  3.96743838e-01  3.98213935e-01  4.01031380e-01  4.01647159e-01
  4.03155665e-01  4.04361087e-01  4.07146219e-01  4.07555424e-01
  4.08891295e-01  4.10549435e-01  4.12328485e-01  4.13817496e-01
  4.14344438e-01  4.15810255e-01  4.16999425e-01  4.17679626e-01
  4.18626544e-01  4.20941226e-01  4.21766886e-01  4.24438016e-01
  4.26027379e-01  4.26932142e-01  4.28144085e-01  4.31472027e-01
  4.33112154e-01  4.34474014e-01  4.37125063e-01  4.39069758e-01
  4.40512654e-01  4.41422635e-01  4.42901950e-01  4.43711527e-01
  4.44598370e-01  4.47196739e-01  4.48932741e-01  4.49358359e-01
  4.50855726e-01  4.51224326e-01  4.55199862e-01  4.55421974e-01
  4.56702521e-01  4.56959088e-01  4.59585547e-01  4.62439413e-01
  4.62577372e-01  4.63720121e-01  4.65834816e-01  4.67754342e-01
  4.68874737e-01  4.70600569e-01  4.71806944e-01  4.74732995e-01
  4.74928587e-01  4.75238420e-01  4.78000454e-01  4.80098459e-01
  4.83663286e-01  4.85302549e-01  4.86585120e-01  4.87437400e-01
  4.88648227e-01  4.90314207e-01  4.92185382e-01  4.93837654e-01
  4.94522788e-01  4.96344436e-01  4.97552623e-01  5.00227910e-01
  5.00760462e-01  5.01653583e-01  5.02684034e-01  5.04645091e-01
  5.06541970e-01  5.07836662e-01  5.09915282e-01  5.13203063e-01
  5.14412543e-01  5.15133447e-01  5.17789741e-01  5.18278202e-01
  5.19623623e-01  5.21241304e-01  5.23522393e-01  5.24742682e-01
  5.26865749e-01  5.29840945e-01  5.31238987e-01  5.34703187e-01
  5.35054523e-01  5.37772709e-01  5.39228162e-01  5.41927242e-01
  5.45785697e-01  5.48300494e-01  5.49763746e-01  5.52005442e-01
  5.53848133e-01  5.56414632e-01  5.57415422e-01  5.62623732e-01
  5.64126684e-01  5.67407263e-01  5.69367688e-01  5.70276031e-01
  5.70575824e-01  5.73596077e-01  5.75060545e-01  5.77237498e-01
  5.78023378e-01  5.79561081e-01  5.83396598e-01  5.84800718e-01
  5.85840463e-01  5.88326354e-01  5.89954017e-01  5.91834488e-01
  5.92123843e-01  5.94943004e-01  5.98097675e-01  5.98423754e-01
  6.01707915e-01  6.02462014e-01  6.07265838e-01  6.09243831e-01
  6.10722314e-01  6.15059881e-01  6.16660877e-01  6.18782251e-01
  6.22121324e-01  6.23013380e-01  6.25074014e-01  6.26881775e-01
  6.26948430e-01  6.27961421e-01  6.30214307e-01  6.33815955e-01
  6.35390287e-01  6.36907295e-01  6.37737519e-01  6.38813185e-01
  6.41037057e-01  6.42166632e-01  6.45279052e-01  6.47481027e-01
  6.49896277e-01  6.52324042e-01  6.52435601e-01  6.53793773e-01
  6.57230839e-01  6.58938244e-01  6.60463379e-01  6.63954271e-01
  6.65176503e-01  6.67568270e-01  6.68650789e-01  6.72577758e-01
  6.73642971e-01  6.74321864e-01  6.75709558e-01  6.78587428e-01
  6.80470571e-01  6.81851045e-01  6.82521211e-01  6.85718665e-01
  6.88843131e-01  6.90804682e-01  6.92748522e-01  6.94317909e-01
  6.95317282e-01  6.97493797e-01  7.00204331e-01  7.03539252e-01
  7.04957195e-01  7.05386125e-01  7.07029238e-01  7.08035530e-01
  7.10513338e-01  7.11927352e-01  7.14719752e-01  7.16372881e-01
  7.18596101e-01  7.20877815e-01  7.22131813e-01  7.22743418e-01
  7.24851416e-01  7.28946864e-01  7.31133191e-01  7.32355655e-01
  7.36431252e-01  7.37826425e-01  7.41419229e-01  7.44388409e-01
  7.46324340e-01  7.47004700e-01  7.47873257e-01  7.50791535e-01
  7.52408749e-01  7.54581825e-01  7.56129548e-01  7.57658698e-01
  7.59904610e-01  7.61672914e-01  7.61924427e-01  7.64661283e-01
  7.66391762e-01  7.68246291e-01  7.72788804e-01  7.76606256e-01
  7.77312918e-01  7.79914476e-01  7.80908361e-01  7.83954810e-01
  7.84982187e-01  7.89023246e-01  7.90914716e-01  7.93806269e-01
  7.96421186e-01  7.99219751e-01  8.01147433e-01  8.03857123e-01
  8.05069883e-01  8.06873543e-01  8.08005652e-01  8.09376055e-01
  8.10752614e-01  8.13441410e-01  8.14796273e-01  8.16809358e-01
  8.18637478e-01  8.19376362e-01  8.19465685e-01  8.24442934e-01
  8.27418912e-01  8.30708291e-01  8.34243778e-01  8.34523869e-01
  8.37414392e-01  8.38707041e-01  8.40598905e-01  8.41558271e-01
  8.43359610e-01  8.46361603e-01  8.47310493e-01  8.48684660e-01
  8.50391738e-01  8.51960521e-01  8.53308456e-01  8.54884470e-01
  8.56033505e-01  8.57504415e-01  8.57998403e-01  8.59156322e-01
  8.60791215e-01  8.62939511e-01  8.63415416e-01  8.66715655e-01
  8.69825434e-01  8.72667795e-01  8.73463234e-01  8.75658457e-01
  8.76742596e-01  8.79894143e-01  8.80849624e-01  8.82322285e-01
  8.83820064e-01  8.86659120e-01  8.89242799e-01  8.92281085e-01
  8.93423609e-01  8.94869623e-01  8.98865945e-01  9.00865255e-01
  9.02200603e-01  9.04851067e-01  9.05101334e-01  9.07837713e-01
  9.09740601e-01  9.10865108e-01  9.14087328e-01  9.16350608e-01
  9.17913251e-01  9.17941271e-01  9.20118509e-01  9.23349704e-01
  9.25427350e-01  9.26397895e-01  9.29434278e-01  9.30236304e-01
  9.34208565e-01  9.35878965e-01  9.36752658e-01  9.38997665e-01
  9.41006390e-01  9.42570635e-01  9.44553199e-01  9.48262719e-01
  9.52297565e-01  9.52919157e-01  9.55108376e-01  9.55461185e-01
  9.57522220e-01  9.58363266e-01  9.62073982e-01  9.63068088e-01
  9.64708707e-01  9.66839986e-01  9.67542181e-01  9.70215087e-01
  9.72489745e-01  9.72873781e-01  9.74246391e-01  9.76068435e-01
  9.76956069e-01  9.80143891e-01  9.83225325e-01  9.83872703e-01
  9.86410993e-01  9.87987408e-01  9.89073066e-01  9.90450245e-01
  9.93010772e-01  9.93775667e-01  9.96355015e-01  1.00040229e+00
  1.00159431e+00  1.00412516e+00  1.00586261e+00  1.00770552e+00
  1.00997733e+00  1.01144860e+00  1.01284521e+00  1.01391051e+00
  1.01538659e+00  1.01647521e+00  1.01813911e+00  1.02039838e+00
  1.02300016e+00  1.02419132e+00  1.02709461e+00  1.02751297e+00
  1.02844815e+00  1.02978023e+00  1.03100740e+00  1.03222680e+00
  1.03318279e+00  1.03438914e+00  1.03683094e+00  1.03951624e+00
  1.03970231e+00  1.04146040e+00  1.04317554e+00  1.04487085e+00
  1.04724934e+00  1.04832672e+00  1.05000015e+00  1.05232263e+00
  1.05506983e+00  1.05818498e+00  1.06097219e+00  1.06196863e+00
  1.06315632e+00  1.06423054e+00  1.06743519e+00  1.06819613e+00
  1.07047077e+00  1.07126932e+00  1.07786999e+00  1.08024157e+00
  1.08208978e+00  1.08389872e+00  1.08479510e+00  1.08845290e+00
  1.09004086e+00  1.09195092e+00  1.09275259e+00  1.09628578e+00
  1.09907736e+00  1.09988508e+00  1.10232739e+00  1.10299710e+00
  1.10903502e+00  1.11159381e+00  1.11284596e+00  1.11368801e+00
  1.11562601e+00  1.11702191e+00  1.11813884e+00  1.12176643e+00
  1.12395843e+00  1.12509941e+00  1.12659860e+00  1.13014976e+00
  1.13096684e+00  1.13253360e+00  1.13347531e+00  1.13638722e+00
  1.13940056e+00  1.14228542e+00  1.14405039e+00  1.14505259e+00
  1.14862127e+00  1.14993566e+00  1.15203106e+00  1.15360554e+00
  1.15556215e+00  1.15671152e+00  1.15964709e+00  1.16199060e+00
  1.16572891e+00  1.16693920e+00  1.17000562e+00  1.17277195e+00
  1.17584407e+00  1.17858397e+00  1.18143031e+00  1.18342992e+00
  1.18403047e+00  1.18847047e+00  1.18935181e+00  1.19135511e+00
  1.19289179e+00  1.19517932e+00  1.19637458e+00  1.19877475e+00
  1.19939056e+00  1.20321723e+00  1.20410001e+00  1.20762853e+00
  1.20891688e+00  1.21132403e+00  1.21181313e+00  1.21689611e+00
  1.21827078e+00  1.21957496e+00  1.22146274e+00  1.22400224e+00
  1.22645366e+00  1.22802743e+00  1.22851527e+00  1.23119630e+00
  1.23264468e+00  1.23560843e+00  1.23803931e+00  1.23953475e+00
  1.24102179e+00  1.24321883e+00  1.24426633e+00  1.24454844e+00
  1.24869772e+00  1.25401028e+00  1.25448366e+00  1.25505285e+00
  1.25894038e+00  1.26069849e+00  1.26119346e+00  1.26308821e+00
  1.26440304e+00  1.26602998e+00  1.26746170e+00  1.27170813e+00
  1.27292758e+00  1.27397621e+00  1.27448702e+00  1.27855126e+00
  1.28113564e+00  1.28369645e+00  1.28546490e+00  1.28687169e+00
  1.28762162e+00  1.29295697e+00  1.29705265e+00  1.29766669e+00
  1.29957698e+00  1.30377157e+00  1.30541329e+00  1.30656282e+00
  1.30875491e+00  1.30995901e+00  1.31200171e+00  1.31503329e+00
  1.31727448e+00  1.31891365e+00  1.32297825e+00  1.32460612e+00
  1.33027665e+00  1.33441551e+00  1.33576360e+00  1.33752394e+00
  1.34277110e+00  1.34450682e+00  1.34561253e+00  1.34780004e+00
  1.35086602e+00  1.35374245e+00  1.35605081e+00  1.36103838e+00
  1.36309671e+00  1.36664904e+00  1.36947292e+00  1.37527233e+00
  1.37667376e+00  1.38160711e+00  1.38287910e+00  1.38475820e+00
  1.38905442e+00  1.39287800e+00  1.39708976e+00  1.39771511e+00
  1.39955850e+00  1.40111514e+00  1.40800724e+00  1.40999271e+00
  1.41294600e+00  1.41512938e+00  1.42012017e+00  1.42356100e+00
  1.42808230e+00  1.43012393e+00  1.43257390e+00  1.43571370e+00
  1.43667912e+00  1.44130370e+00  1.44598996e+00  1.44924590e+00
  1.45589215e+00  1.45660883e+00  1.46160028e+00  1.46776410e+00
  1.47063720e+00  1.47177575e+00  1.47508726e+00  1.47857484e+00
  1.48771364e+00  1.48950810e+00  1.49243040e+00  1.49502481e+00
  1.50243185e+00  1.50492007e+00  1.50786694e+00  1.50942093e+00
  1.51569152e+00  1.51869454e+00  1.52732163e+00  1.53232679e+00
  1.54115220e+00  1.54333110e+00  1.54649549e+00  1.54825327e+00
  1.55033036e+00  1.56018250e+00  1.56440330e+00  1.56662455e+00
  1.57645348e+00  1.58203996e+00  1.58717723e+00  1.58931234e+00
  1.60010889e+00  1.60975398e+00  1.62859132e+00  1.63463146e+00
  1.64813550e+00  1.65332347e+00  1.65573033e+00  1.66426134e+00
  1.67284052e+00  1.68935705e+00  1.69601583e+00  1.70939539e+00
  1.71603277e+00  1.75041525e+00  1.77357587e+00  1.83212545e+00
  1.85195369e+00  1.89811101e+00  1.90460503e+00  1.93915727e+00
  1.96557233e+00  2.01692045e+00  2.06957757e+00  2.07064866e+00
  2.15595347e+00  2.23346860e+00  2.28274328e+00  2.33756706e+00
  2.40221354e+00  2.42078295e+00  2.46778037e+00  2.49289469e+00
  2.51048156e+00  2.57737347e+00  2.63372135e+00  2.70197793e+00
  2.71929156e+00  2.72256596e+00  2.76583810e+00  2.82819944e+00
  2.85487722e+00  2.86521710e+00  2.88373495e+00  2.89634135e+00
  2.97675234e+00  3.01706687e+00  3.07567930e+00  3.11002069e+00
  3.13587524e+00  3.14958803e+00  3.18181556e+00  3.18706496e+00
  3.20556232e+00  3.24301086e+00  3.29615484e+00  3.30441413e+00
  3.30831330e+00  3.31218743e+00  3.33390121e+00  3.35681317e+00
  3.36126657e+00  3.38329119e+00  3.39489210e+00  3.41197998e+00
  3.41921395e+00  3.42613871e+00  3.44794724e+00  3.44967238e+00
  3.45887890e+00  3.47714259e+00  3.48922085e+00  3.49208510e+00
  3.50191009e+00  3.51994800e+00  3.53077232e+00  3.53615009e+00
  3.53969955e+00  3.55594522e+00  3.55651714e+00  3.57424179e+00
  3.59247207e+00  3.61152382e+00  3.62252699e+00  3.65235320e+00
  3.66389314e+00  3.68156570e+00  3.69211263e+00  3.69563216e+00
  3.70790915e+00  3.72386736e+00  3.76174526e+00  3.77742034e+00
  3.79835590e+00  3.80428866e+00  3.85692622e+00  3.87266199e+00
  3.87499256e+00  3.90964863e+00  3.93441061e+00  3.95914736e+00
  3.97901472e+00  4.00640494e+00  4.01831015e+00  4.03869644e+00
  4.04314295e+00  4.04599142e+00  4.07258122e+00  4.08893053e+00
  4.09964540e+00  4.11558269e+00  4.14775091e+00  4.16791971e+00
  4.25560267e+00  4.29297279e+00  4.29869639e+00  4.30226143e+00
  4.39518383e+00  4.39757068e+00  4.43316138e+00  4.44381590e+00
  4.51210538e+00  4.52368108e+00  4.53449481e+00  4.54264278e+00
  4.61806257e+00  4.65289074e+00  4.66991882e+00  4.68512524e+00
  4.71185208e+00  4.78862916e+00  4.82600990e+00  4.94227305e+00
  5.01143267e+00  5.03670140e+00  5.07204983e+00  5.12855479e+00
  5.13444691e+00  5.29796069e+00  5.31375090e+00  5.37979657e+00
  5.43175127e+00  5.43535502e+00  5.44569351e+00  5.48031948e+00
  5.51741896e+00  5.51957287e+00  5.58189874e+00  5.65569235e+00
  5.72770343e+00  5.74407913e+00  5.82565437e+00  5.84037940e+00
  5.95246472e+00  5.95700366e+00  6.03003447e+00  6.05916272e+00
  6.10294668e+00  6.11741819e+00  6.15277435e+00  6.16937193e+00
  6.25951729e+00  6.35100688e+00  6.41967377e+00  6.42896821e+00
  6.43803847e+00  6.54270257e+00  6.60489669e+00  6.64490311e+00
  6.69654311e+00  6.78413700e+00  6.83124889e+00  6.87778087e+00
  6.88053282e+00  6.95635586e+00  7.02091529e+00  7.12456286e+00
  7.15409510e+00  7.22969879e+00  7.26422383e+00  7.29063897e+00
  7.31638479e+00  7.36950180e+00  7.43316655e+00  7.45436915e+00
  7.64046286e+00  7.69451363e+00  7.82825439e+00  7.91191450e+00
  8.03350896e+00  8.37731909e+00  1.12837803e+01  1.31267064e+01
  1.33396451e+01  1.41181990e+01  1.59423954e+01  1.75648704e+01]
    CPU time for vj and vk   4192.72 sec, wall time    131.45 sec
E1 = -2587.0632044340878  E_coul = 1114.8027122553385
cycle= 1 E= -548.842164888145  delta_E= 5.15  |g|= 1.02  |ddm|= 10.7
    CPU time for cycle= 1   4195.46 sec, wall time    131.76 sec
diis-norm(errvec)=4.63179
diis-c [-21.45346028   1.        ]
  HOMO = -0.054490810012356  LUMO = 0.000765087826034691
  mo_energy =
[-2.05988932e+01 -2.05960303e+01 -2.02442125e+01 -1.16686084e+01
 -1.14444829e+01 -1.14433450e+01 -2.44324786e+00 -2.43551362e+00
 -2.43384440e+00 -2.42747605e+00 -2.42555744e+00 -2.42511732e+00
 -2.42217671e+00 -2.42064396e+00 -2.41947094e+00 -2.41437681e+00
 -2.40145666e+00 -2.40085968e+00 -2.39550654e+00 -2.38481204e+00
 -2.38384864e+00 -2.37594516e+00 -2.37479373e+00 -2.37099218e+00
 -2.36643248e+00 -2.34917746e+00 -2.32490153e+00 -2.32412753e+00
 -2.27090575e+00 -2.26740479e+00 -2.26161050e+00 -2.24338644e+00
 -2.21807074e+00 -2.21254619e+00 -1.68489186e+00 -1.50134436e+00
 -1.41889436e+00 -1.19599801e+00 -1.03034698e+00 -9.26420044e-01
 -8.70582213e-01 -8.10373052e-01 -7.79551953e-01 -7.11999667e-01
 -6.98094059e-01 -6.28867189e-01 -6.10773720e-01 -5.84849618e-01
 -5.28689086e-01 -4.53477270e-01 -4.11052997e-01 -2.55625169e-01
 -2.24516796e-01 -2.04284145e-01 -1.81597747e-01 -1.75972668e-01
 -1.54177159e-01 -1.33357046e-01 -1.18366844e-01 -1.03769996e-01
 -9.79561672e-02 -9.27595453e-02 -7.85578553e-02 -6.56830337e-02
 -5.44908100e-02  7.65087826e-04  1.20616826e-02  1.49208668e-02
  1.89619097e-02  2.20059675e-02  2.31811125e-02  2.58734039e-02
  2.64893613e-02  2.84153496e-02  3.21991455e-02  3.41000561e-02
  3.58453356e-02  3.88398802e-02  3.94428707e-02  4.20028151e-02
  4.40925451e-02  4.53620858e-02  4.64862519e-02  4.82839961e-02
  5.09482824e-02  5.27183195e-02  5.41317790e-02  5.42289589e-02
  5.64642599e-02  5.79576611e-02  5.94387385e-02  6.43682138e-02
  6.56059150e-02  6.71889518e-02  6.86419241e-02  7.08201037e-02
  7.14961461e-02  7.19693044e-02  7.29240979e-02  7.40845663e-02
  7.46869780e-02  7.72558230e-02  7.74138450e-02  7.92240612e-02
  8.06612141e-02  8.27103871e-02  8.56894640e-02  8.61385849e-02
  8.63129971e-02  8.71346642e-02  8.92787450e-02  9.05924822e-02
  9.07851432e-02  9.23250862e-02  9.42963105e-02  9.52014930e-02
  9.73239700e-02  9.80407119e-02  9.91633497e-02  9.96640008e-02
  1.01691025e-01  1.02575275e-01  1.03703582e-01  1.05748845e-01
  1.06421329e-01  1.07389145e-01  1.07574448e-01  1.08712259e-01
  1.10953930e-01  1.11660286e-01  1.13150906e-01  1.14326814e-01
  1.15848810e-01  1.18249165e-01  1.18608577e-01  1.18769856e-01
  1.19563997e-01  1.20927825e-01  1.24418104e-01  1.25849343e-01
  1.27385642e-01  1.27888615e-01  1.28512593e-01  1.29127451e-01
  1.29808845e-01  1.30990109e-01  1.33447019e-01  1.35216383e-01
  1.36990510e-01  1.38885369e-01  1.39102336e-01  1.40253248e-01
  1.42970307e-01  1.45147880e-01  1.45833829e-01  1.46697921e-01
  1.50307495e-01  1.50840864e-01  1.52047021e-01  1.53949567e-01
  1.55561897e-01  1.56500744e-01  1.59568929e-01  1.60822293e-01
  1.61168841e-01  1.63992193e-01  1.65617680e-01  1.68050006e-01
  1.70306031e-01  1.71956066e-01  1.72990180e-01  1.74936548e-01
  1.76756913e-01  1.77700252e-01  1.79532890e-01  1.80379188e-01
  1.81316452e-01  1.83743078e-01  1.85488573e-01  1.89817671e-01
  1.90488163e-01  1.92927150e-01  1.95868041e-01  1.98047148e-01
  1.98583171e-01  2.00570449e-01  2.02055741e-01  2.04015304e-01
  2.05661854e-01  2.06698957e-01  2.07127502e-01  2.09144409e-01
  2.10117145e-01  2.11320817e-01  2.11919362e-01  2.13272234e-01
  2.16297698e-01  2.16696446e-01  2.18853685e-01  2.21138403e-01
  2.22335267e-01  2.23401642e-01  2.24165999e-01  2.26470486e-01
  2.29463661e-01  2.30867738e-01  2.32456262e-01  2.33657592e-01
  2.34531844e-01  2.35191924e-01  2.36671420e-01  2.39369258e-01
  2.40545592e-01  2.41066796e-01  2.42669279e-01  2.44913942e-01
  2.46086700e-01  2.49440428e-01  2.50143174e-01  2.50916218e-01
  2.52930843e-01  2.54738857e-01  2.57500098e-01  2.58751154e-01
  2.60780632e-01  2.62025689e-01  2.66872266e-01  2.69141449e-01
  2.71517747e-01  2.72704141e-01  2.75339204e-01  2.78666292e-01
  2.80012737e-01  2.83424947e-01  2.84761892e-01  2.87319310e-01
  2.88131761e-01  2.89439977e-01  2.91435913e-01  2.94049731e-01
  2.94861597e-01  2.96250401e-01  2.97046711e-01  2.98285604e-01
  3.02444960e-01  3.07167557e-01  3.07717157e-01  3.10441839e-01
  3.11099401e-01  3.14160397e-01  3.16127190e-01  3.17601185e-01
  3.20849149e-01  3.23874429e-01  3.25756306e-01  3.26703549e-01
  3.28424194e-01  3.32185943e-01  3.33674572e-01  3.35173579e-01
  3.37202728e-01  3.39922094e-01  3.42253939e-01  3.43475896e-01
  3.45713519e-01  3.49515703e-01  3.51579076e-01  3.52918920e-01
  3.56298524e-01  3.59565006e-01  3.61815389e-01  3.62759521e-01
  3.65383383e-01  3.67187122e-01  3.68602999e-01  3.70287337e-01
  3.71818697e-01  3.73950838e-01  3.74602308e-01  3.75735901e-01
  3.78414754e-01  3.82014425e-01  3.84730386e-01  3.87403087e-01
  3.90659607e-01  3.91413743e-01  3.92978708e-01  3.95213482e-01
  3.97598775e-01  4.01450849e-01  4.02642808e-01  4.04533716e-01
  4.06689076e-01  4.07794435e-01  4.10539903e-01  4.11725011e-01
  4.12241631e-01  4.16420699e-01  4.18191420e-01  4.20065770e-01
  4.20642483e-01  4.22834045e-01  4.24374494e-01  4.27394821e-01
  4.29603405e-01  4.30953834e-01  4.31967289e-01  4.33523030e-01
  4.35359867e-01  4.36027108e-01  4.38022812e-01  4.40400768e-01
  4.43587326e-01  4.44138352e-01  4.46094900e-01  4.47102983e-01
  4.47609798e-01  4.48227523e-01  4.50907069e-01  4.51617546e-01
  4.55124726e-01  4.55474937e-01  4.58420789e-01  4.60010216e-01
  4.60910375e-01  4.62195114e-01  4.65688632e-01  4.68104008e-01
  4.68988273e-01  4.69889204e-01  4.71731722e-01  4.72084897e-01
  4.74169062e-01  4.74523011e-01  4.76235878e-01  4.77666329e-01
  4.79376265e-01  4.79925711e-01  4.82953436e-01  4.85084473e-01
  4.85391351e-01  4.87646042e-01  4.88865611e-01  4.90068619e-01
  4.90680084e-01  4.93666329e-01  4.94453293e-01  4.95592876e-01
  4.96878187e-01  4.99157613e-01  5.00839678e-01  5.01316237e-01
  5.03809653e-01  5.04767805e-01  5.05846476e-01  5.08324366e-01
  5.09696741e-01  5.11677851e-01  5.12817597e-01  5.15377518e-01
  5.17330908e-01  5.19316942e-01  5.19978974e-01  5.20524320e-01
  5.21745481e-01  5.25157121e-01  5.26459884e-01  5.29066019e-01
  5.30546110e-01  5.31558530e-01  5.34856888e-01  5.36902400e-01
  5.38718497e-01  5.39950694e-01  5.40348117e-01  5.42549551e-01
  5.44215963e-01  5.49480804e-01  5.50361422e-01  5.54491378e-01
  5.55815322e-01  5.56684103e-01  5.58507704e-01  5.61191908e-01
  5.63288291e-01  5.65063270e-01  5.66491490e-01  5.67440042e-01
  5.68557724e-01  5.71223367e-01  5.71983063e-01  5.74051297e-01
  5.76813104e-01  5.78028591e-01  5.81060255e-01  5.83712058e-01
  5.84813129e-01  5.85674469e-01  5.87520608e-01  5.88660242e-01
  5.89657879e-01  5.92270550e-01  5.94616066e-01  5.95074327e-01
  5.97869880e-01  5.98374389e-01  6.00153919e-01  6.03436656e-01
  6.04764173e-01  6.05937480e-01  6.07687749e-01  6.12949549e-01
  6.14060697e-01  6.14735697e-01  6.16387805e-01  6.18135076e-01
  6.19505372e-01  6.20722501e-01  6.21993933e-01  6.24359086e-01
  6.27368321e-01  6.29343901e-01  6.30516586e-01  6.35116438e-01
  6.35828206e-01  6.37059414e-01  6.40052806e-01  6.41422550e-01
  6.42525868e-01  6.45164095e-01  6.48244489e-01  6.49690699e-01
  6.51571553e-01  6.53761717e-01  6.55557969e-01  6.56626013e-01
  6.59486711e-01  6.62169563e-01  6.65899763e-01  6.66012422e-01
  6.67130200e-01  6.67587167e-01  6.70278162e-01  6.73328816e-01
  6.76044751e-01  6.80109120e-01  6.81704787e-01  6.84171606e-01
  6.84482157e-01  6.89476369e-01  6.89857824e-01  6.93495576e-01
  6.97205990e-01  6.98681469e-01  7.00939854e-01  7.01872104e-01
  7.04195250e-01  7.06008158e-01  7.11426381e-01  7.11847388e-01
  7.13766991e-01  7.17871118e-01  7.19499668e-01  7.20915233e-01
  7.24661089e-01  7.26364407e-01  7.28789099e-01  7.33036997e-01
  7.36458291e-01  7.39238516e-01  7.39608710e-01  7.42542733e-01
  7.43247768e-01  7.49920676e-01  7.51324349e-01  7.54298388e-01
  7.55837229e-01  7.56483447e-01  7.59780326e-01  7.62065567e-01
  7.63928185e-01  7.66968201e-01  7.68376722e-01  7.72320641e-01
  7.73307395e-01  7.75922502e-01  7.77393657e-01  7.80086292e-01
  7.82310229e-01  7.84790765e-01  7.86010366e-01  7.87854885e-01
  7.90459210e-01  7.93573770e-01  7.94737905e-01  7.96079379e-01
  7.98760011e-01  8.01115782e-01  8.03333158e-01  8.05407986e-01
  8.07369561e-01  8.09639866e-01  8.11608823e-01  8.14569036e-01
  8.16005957e-01  8.18506455e-01  8.19228481e-01  8.22631340e-01
  8.25445119e-01  8.25954965e-01  8.27691655e-01  8.29416310e-01
  8.31180213e-01  8.31437805e-01  8.35228797e-01  8.36353397e-01
  8.37829100e-01  8.42318021e-01  8.45690842e-01  8.46232816e-01
  8.48210933e-01  8.49219427e-01  8.51327817e-01  8.52233186e-01
  8.56218465e-01  8.57329143e-01  8.58885760e-01  8.62008382e-01
  8.64024077e-01  8.66551473e-01  8.66736682e-01  8.68707276e-01
  8.70630952e-01  8.73498176e-01  8.75986778e-01  8.79416984e-01
  8.81069799e-01  8.84953501e-01  8.86460103e-01  8.87407062e-01
  8.88580383e-01  8.90275872e-01  8.93587185e-01  8.96764178e-01
  8.98295759e-01  9.01761003e-01  9.02330994e-01  9.04806870e-01
  9.05341791e-01  9.06798429e-01  9.09701308e-01  9.11506813e-01
  9.14795323e-01  9.15100305e-01  9.16822738e-01  9.20855151e-01
  9.23339352e-01  9.24304076e-01  9.27125244e-01  9.29594218e-01
  9.32803745e-01  9.35251809e-01  9.36327797e-01  9.36721532e-01
  9.37788964e-01  9.38460890e-01  9.42870802e-01  9.44577856e-01
  9.45393345e-01  9.46833719e-01  9.48711736e-01  9.49372019e-01
  9.50575158e-01  9.55924180e-01  9.56324869e-01  9.57207101e-01
  9.59358216e-01  9.62614896e-01  9.63911347e-01  9.65067605e-01
  9.66772774e-01  9.68885814e-01  9.70704621e-01  9.72225300e-01
  9.74650404e-01  9.76279329e-01  9.77783617e-01  9.78671105e-01
  9.82024712e-01  9.83292468e-01  9.84478427e-01  9.85972826e-01
  9.89568095e-01  9.92841463e-01  9.94299936e-01  9.95940752e-01
  9.97068481e-01  9.98272953e-01  1.00046107e+00  1.00139873e+00
  1.00350534e+00  1.00512206e+00  1.00578315e+00  1.01021184e+00
  1.01045915e+00  1.01154093e+00  1.01447799e+00  1.01671152e+00
  1.01863549e+00  1.02020908e+00  1.02301446e+00  1.02504462e+00
  1.02560774e+00  1.02705864e+00  1.03049124e+00  1.03213069e+00
  1.03495639e+00  1.03641617e+00  1.03777031e+00  1.04171368e+00
  1.04302169e+00  1.04606079e+00  1.04866361e+00  1.04912209e+00
  1.05058846e+00  1.05256883e+00  1.05349610e+00  1.05575789e+00
  1.05719073e+00  1.05872739e+00  1.06177058e+00  1.06374123e+00
  1.06652526e+00  1.06905737e+00  1.07004690e+00  1.07168616e+00
  1.07239834e+00  1.07445252e+00  1.07552625e+00  1.07945051e+00
  1.08065289e+00  1.08235898e+00  1.08371903e+00  1.08484555e+00
  1.08798076e+00  1.09048963e+00  1.09259928e+00  1.09428963e+00
  1.09648785e+00  1.09696562e+00  1.09941166e+00  1.10158114e+00
  1.10286175e+00  1.10537210e+00  1.10747547e+00  1.10809570e+00
  1.10873241e+00  1.11049992e+00  1.11175059e+00  1.11298024e+00
  1.11528172e+00  1.12016516e+00  1.12150590e+00  1.12235915e+00
  1.12323906e+00  1.12634008e+00  1.12900003e+00  1.13180578e+00
  1.13372339e+00  1.13676525e+00  1.13920562e+00  1.13997942e+00
  1.14110413e+00  1.14336753e+00  1.14494198e+00  1.14731091e+00
  1.15175035e+00  1.15245951e+00  1.15435830e+00  1.15867309e+00
  1.16014596e+00  1.16150414e+00  1.16223333e+00  1.16658351e+00
  1.16909896e+00  1.17126913e+00  1.17325455e+00  1.17523346e+00
  1.17617602e+00  1.17736715e+00  1.17926558e+00  1.18011978e+00
  1.18278065e+00  1.18836094e+00  1.18961370e+00  1.19147040e+00
  1.19304712e+00  1.19423777e+00  1.19653281e+00  1.20011299e+00
  1.20254576e+00  1.20402585e+00  1.20444327e+00  1.20755600e+00
  1.20935940e+00  1.21040901e+00  1.21294823e+00  1.21343491e+00
  1.21695539e+00  1.21854085e+00  1.22209824e+00  1.22427443e+00
  1.22619219e+00  1.22689470e+00  1.23120355e+00  1.23151550e+00
  1.23449319e+00  1.23645787e+00  1.24175191e+00  1.24277232e+00
  1.24363545e+00  1.24422449e+00  1.24734625e+00  1.25070664e+00
  1.25331765e+00  1.25465241e+00  1.25546805e+00  1.25882015e+00
  1.25916670e+00  1.26310577e+00  1.26499559e+00  1.26899787e+00
  1.27184794e+00  1.27445847e+00  1.27653420e+00  1.27705393e+00
  1.28053158e+00  1.28087733e+00  1.28241094e+00  1.28384601e+00
  1.28698439e+00  1.28957477e+00  1.29173975e+00  1.29284849e+00
  1.29702852e+00  1.29794185e+00  1.30123109e+00  1.30501305e+00
  1.30716960e+00  1.30862595e+00  1.31230580e+00  1.31305884e+00
  1.31426969e+00  1.31641710e+00  1.31834700e+00  1.32141867e+00
  1.32465326e+00  1.32583592e+00  1.32988472e+00  1.33037444e+00
  1.33513183e+00  1.33590742e+00  1.33912039e+00  1.33961933e+00
  1.34312155e+00  1.34483953e+00  1.34690715e+00  1.34962344e+00
  1.35130397e+00  1.35301657e+00  1.35560998e+00  1.35860954e+00
  1.36219859e+00  1.36501073e+00  1.36987772e+00  1.37054379e+00
  1.37369204e+00  1.37596508e+00  1.37725572e+00  1.38166207e+00
  1.38367773e+00  1.38843038e+00  1.38933173e+00  1.39077625e+00
  1.39339161e+00  1.39650820e+00  1.39855200e+00  1.40062807e+00
  1.40121402e+00  1.40406584e+00  1.40535382e+00  1.40917776e+00
  1.41177551e+00  1.41480535e+00  1.41801078e+00  1.42031248e+00
  1.42225263e+00  1.42694102e+00  1.42737457e+00  1.43077628e+00
  1.43375980e+00  1.43646449e+00  1.43996772e+00  1.44153347e+00
  1.44331243e+00  1.44539071e+00  1.45079943e+00  1.45403673e+00
  1.45490415e+00  1.46107664e+00  1.46494603e+00  1.46841653e+00
  1.46979372e+00  1.47312529e+00  1.47750326e+00  1.48099511e+00
  1.48327311e+00  1.48494489e+00  1.48772496e+00  1.49504621e+00
  1.49940518e+00  1.50172741e+00  1.50596710e+00  1.50796648e+00
  1.51198264e+00  1.51574397e+00  1.51723747e+00  1.52636527e+00
  1.52947461e+00  1.53076929e+00  1.53651402e+00  1.53744224e+00
  1.54400248e+00  1.54628854e+00  1.54943301e+00  1.55183059e+00
  1.55467980e+00  1.55836256e+00  1.56194033e+00  1.56502782e+00
  1.56671220e+00  1.56857801e+00  1.57185104e+00  1.57488671e+00
  1.57811458e+00  1.58707605e+00  1.58916292e+00  1.59389110e+00
  1.59922245e+00  1.60000188e+00  1.60639746e+00  1.61077612e+00
  1.61784301e+00  1.62069693e+00  1.62478665e+00  1.62917136e+00
  1.63860734e+00  1.63975324e+00  1.64431116e+00  1.65262400e+00
  1.65998038e+00  1.66075385e+00  1.66383755e+00  1.66892478e+00
  1.67435450e+00  1.67647397e+00  1.68390706e+00  1.68607409e+00
  1.69255446e+00  1.69773188e+00  1.70199737e+00  1.70582504e+00
  1.71239740e+00  1.71495546e+00  1.72461625e+00  1.72773952e+00
  1.73317613e+00  1.74089448e+00  1.74560054e+00  1.75069235e+00
  1.75682497e+00  1.76202904e+00  1.77166310e+00  1.77683561e+00
  1.78323875e+00  1.79476993e+00  1.80323894e+00  1.80724667e+00
  1.82598392e+00  1.85047932e+00  1.86197294e+00  1.87195169e+00
  1.88088068e+00  1.88403546e+00  1.89378722e+00  1.90040952e+00
  1.94442331e+00  1.94962402e+00  1.95600982e+00  2.00549819e+00
  2.02510315e+00  2.08209392e+00  2.13694661e+00  2.18570262e+00
  2.24795486e+00  2.27341803e+00  2.29926237e+00  2.36334146e+00
  2.42105522e+00  2.45505761e+00  2.49281487e+00  2.50094462e+00
  2.53045634e+00  2.55509768e+00  2.60066508e+00  2.64711446e+00
  2.68392284e+00  2.70663566e+00  2.78325848e+00  2.80015677e+00
  2.80865072e+00  2.85411763e+00  2.86344913e+00  2.88669880e+00
  2.96943999e+00  2.99456596e+00  3.02584497e+00  3.07922250e+00
  3.08787055e+00  3.13994264e+00  3.14654467e+00  3.16905975e+00
  3.17899438e+00  3.25230593e+00  3.25869230e+00  3.26489624e+00
  3.28375448e+00  3.29189966e+00  3.30984897e+00  3.33983308e+00
  3.37061148e+00  3.38674392e+00  3.40444511e+00  3.42721847e+00
  3.43785401e+00  3.44535839e+00  3.45658493e+00  3.46060266e+00
  3.49722362e+00  3.49937310e+00  3.52015616e+00  3.53913299e+00
  3.54458091e+00  3.54749647e+00  3.56950630e+00  3.58359544e+00
  3.59687422e+00  3.60407164e+00  3.61864909e+00  3.64324203e+00
  3.66101839e+00  3.66252271e+00  3.67071540e+00  3.67307878e+00
  3.69361971e+00  3.70559977e+00  3.74104917e+00  3.75017285e+00
  3.76833944e+00  3.78054908e+00  3.79162658e+00  3.81388775e+00
  3.82733601e+00  3.83633291e+00  3.85249138e+00  3.87485489e+00
  3.91519314e+00  3.93364457e+00  3.94557675e+00  3.95720174e+00
  3.99689949e+00  4.01867354e+00  4.02581208e+00  4.03795500e+00
  4.05700490e+00  4.09559176e+00  4.14074138e+00  4.22731218e+00
  4.23629592e+00  4.25357324e+00  4.26180878e+00  4.27297614e+00
  4.28934308e+00  4.32826490e+00  4.34662038e+00  4.36966485e+00
  4.38156201e+00  4.39703891e+00  4.40398785e+00  4.42669564e+00
  4.48029671e+00  4.49593169e+00  4.49708110e+00  4.62759730e+00
  4.65178016e+00  4.66652052e+00  4.79076970e+00  4.80186415e+00
  4.83281940e+00  4.87284460e+00  4.93862017e+00  4.97401183e+00
  4.98905216e+00  5.03182581e+00  5.06667444e+00  5.12848755e+00
  5.21700219e+00  5.30460523e+00  5.31273213e+00  5.36500886e+00
  5.41135920e+00  5.49737162e+00  5.49881163e+00  5.50325738e+00
  5.62474146e+00  5.68842795e+00  5.69832429e+00  5.74677106e+00
  5.75849992e+00  5.78215930e+00  5.82736858e+00  5.93065818e+00
  5.97279318e+00  6.00149826e+00  6.06332020e+00  6.08322137e+00
  6.11563857e+00  6.17041110e+00  6.20337325e+00  6.25074404e+00
  6.26592561e+00  6.38331920e+00  6.42853766e+00  6.45699318e+00
  6.50217220e+00  6.60469415e+00  6.64345487e+00  6.76835552e+00
  6.84918860e+00  6.87691169e+00  6.93203932e+00  7.11896826e+00
  7.14624681e+00  7.17398095e+00  7.22576418e+00  7.24338921e+00
  7.28030718e+00  7.31590757e+00  7.38913757e+00  7.39222349e+00
  7.45975543e+00  7.56051656e+00  7.62693075e+00  7.68514224e+00
  7.78842747e+00  7.80867383e+00  8.07676669e+00  8.10788243e+00
  8.15532601e+00  8.51118345e+00  1.13489307e+01  1.31934157e+01
  1.34135493e+01  1.41218895e+01  1.58599290e+01  1.76272421e+01]
    CPU time for vj and vk   4152.44 sec, wall time    130.20 sec
E1 = -2571.3634880967293  E_coul = 1099.0927053559935
cycle= 2 E= -548.852455450131  delta_E= -0.0103  |g|= 0.812  |ddm|= 10.1
    CPU time for cycle= 2   4157.72 sec, wall time    130.59 sec
diis-norm(errvec)=5.33314
diis-c [-2.68228353  0.53948079  0.46051921]
  HOMO = -0.1220788759801  LUMO = -0.0304624509082784
  mo_energy =
[-2.06481922e+01 -2.06478565e+01 -2.05722589e+01 -1.15365730e+01
 -1.13604123e+01 -1.13593937e+01 -2.46540578e+00 -2.46498602e+00
 -2.46112865e+00 -2.46021706e+00 -2.45931912e+00 -2.45185406e+00
 -2.45144552e+00 -2.45144387e+00 -2.44926850e+00 -2.44910850e+00
 -2.44771536e+00 -2.44707975e+00 -2.44641396e+00 -2.44196864e+00
 -2.44132059e+00 -2.43745865e+00 -2.43404731e+00 -2.43321436e+00
 -2.43273751e+00 -2.43222995e+00 -2.43194943e+00 -2.43073869e+00
 -2.42841260e+00 -2.42836255e+00 -2.41766498e+00 -2.41506497e+00
 -2.41184918e+00 -2.41114823e+00 -1.67055536e+00 -1.51108682e+00
 -1.49619612e+00 -1.16744456e+00 -1.01628813e+00 -9.22725711e-01
 -8.59549260e-01 -8.24874742e-01 -7.75937466e-01 -7.37771146e-01
 -7.11041979e-01 -7.02297408e-01 -6.26845566e-01 -6.10261045e-01
 -5.54812992e-01 -5.43563062e-01 -5.26783063e-01 -3.30325756e-01
 -2.86953568e-01 -2.81660400e-01 -2.39506781e-01 -2.34539847e-01
 -2.12568264e-01 -2.02858349e-01 -1.85787963e-01 -1.74029625e-01
 -1.57595097e-01 -1.50823005e-01 -1.32718227e-01 -1.30026705e-01
 -1.22078876e-01 -3.04624509e-02 -1.73363170e-02 -1.20383227e-02
 -8.36350380e-03 -7.35502411e-03 -2.10676709e-03  2.26203219e-03
  4.97890950e-03  8.84316809e-03  1.08740205e-02  1.23026646e-02
  1.44835657e-02  1.60787087e-02  2.05504233e-02  2.20904764e-02
  2.60075057e-02  2.81081714e-02  2.95096437e-02  3.50935990e-02
  3.61205894e-02  3.98635087e-02  4.12765954e-02  4.41365868e-02
  4.57190425e-02  4.63458497e-02  4.75547218e-02  5.18564598e-02
  5.29799866e-02  5.49026231e-02  5.59718904e-02  5.73648662e-02
  5.82628997e-02  5.94034728e-02  6.01870652e-02  6.15525981e-02
  6.20839565e-02  6.27501033e-02  6.44968972e-02  6.47732677e-02
  6.78381382e-02  6.81988397e-02  6.86392814e-02  7.00522444e-02
  7.33032322e-02  7.44238882e-02  7.56456253e-02  7.69704419e-02
  7.84838227e-02  7.94906097e-02  7.97472468e-02  8.10923800e-02
  8.44257558e-02  8.54845056e-02  8.65810956e-02  8.70575920e-02
  8.93258400e-02  8.99991286e-02  9.23599021e-02  9.44874100e-02
  9.69233770e-02  9.71026035e-02  9.79849796e-02  9.95456933e-02
  1.00961250e-01  1.01275476e-01  1.02079672e-01  1.03248584e-01
  1.03697055e-01  1.05487219e-01  1.06285725e-01  1.06877392e-01
  1.08268423e-01  1.09062817e-01  1.11803250e-01  1.12728533e-01
  1.13810676e-01  1.14417585e-01  1.16220432e-01  1.18531033e-01
  1.20281089e-01  1.22775236e-01  1.25226143e-01  1.25365220e-01
  1.26468016e-01  1.26930056e-01  1.28116472e-01  1.28934465e-01
  1.29845204e-01  1.30987352e-01  1.31694277e-01  1.33508742e-01
  1.36109087e-01  1.36576294e-01  1.37946057e-01  1.39219022e-01
  1.41284228e-01  1.42144572e-01  1.43735340e-01  1.45412959e-01
  1.45900901e-01  1.48412846e-01  1.49503770e-01  1.50616065e-01
  1.51488095e-01  1.54050816e-01  1.56217775e-01  1.57287663e-01
  1.58703356e-01  1.59144381e-01  1.60379511e-01  1.61426419e-01
  1.63647010e-01  1.64134763e-01  1.64674293e-01  1.67268384e-01
  1.69992885e-01  1.71243217e-01  1.71587147e-01  1.73680418e-01
  1.75409340e-01  1.77377375e-01  1.80080453e-01  1.81995712e-01
  1.82454469e-01  1.83573670e-01  1.84181406e-01  1.85980802e-01
  1.87457022e-01  1.88369481e-01  1.91133337e-01  1.92126412e-01
  1.93178334e-01  1.97081610e-01  1.97457512e-01  2.00171143e-01
  2.02651035e-01  2.03086481e-01  2.04472067e-01  2.07928758e-01
  2.09173759e-01  2.11026802e-01  2.12197241e-01  2.16030837e-01
  2.17509995e-01  2.19041191e-01  2.20012938e-01  2.20812891e-01
  2.21254402e-01  2.22383206e-01  2.22843840e-01  2.23344479e-01
  2.24817751e-01  2.25741638e-01  2.26959460e-01  2.28527972e-01
  2.29912845e-01  2.30702348e-01  2.32613976e-01  2.33384617e-01
  2.34223112e-01  2.35235465e-01  2.36592579e-01  2.37498132e-01
  2.39345136e-01  2.42817611e-01  2.44902849e-01  2.46257132e-01
  2.47865847e-01  2.49515038e-01  2.52204916e-01  2.53765905e-01
  2.57553154e-01  2.58565821e-01  2.59579112e-01  2.61856466e-01
  2.63564109e-01  2.66464922e-01  2.66566165e-01  2.68274276e-01
  2.70564446e-01  2.76644607e-01  2.77059186e-01  2.78352905e-01
  2.80406048e-01  2.81983677e-01  2.83906403e-01  2.85742706e-01
  2.86382129e-01  2.89311533e-01  2.92986637e-01  2.95712216e-01
  2.98268672e-01  3.00095567e-01  3.02050657e-01  3.04350245e-01
  3.04892289e-01  3.06065984e-01  3.08306110e-01  3.11029315e-01
  3.14243330e-01  3.17113998e-01  3.18954795e-01  3.20672834e-01
  3.23993607e-01  3.25861498e-01  3.26795181e-01  3.28620104e-01
  3.30895634e-01  3.32185330e-01  3.33727146e-01  3.36321434e-01
  3.38392271e-01  3.40348401e-01  3.41579479e-01  3.43567185e-01
  3.46169426e-01  3.47580816e-01  3.48228349e-01  3.50657192e-01
  3.52962262e-01  3.53326237e-01  3.55417171e-01  3.59076363e-01
  3.60926483e-01  3.61581593e-01  3.63947470e-01  3.66122405e-01
  3.67435233e-01  3.70139229e-01  3.72662238e-01  3.75654191e-01
  3.76452475e-01  3.77534501e-01  3.80984292e-01  3.83369428e-01
  3.84694328e-01  3.85652214e-01  3.88040622e-01  3.89863154e-01
  3.90960671e-01  3.92707927e-01  3.95603054e-01  3.99219440e-01
  4.00753869e-01  4.02408400e-01  4.03571174e-01  4.04723610e-01
  4.07152432e-01  4.08108000e-01  4.11034720e-01  4.12100331e-01
  4.12453720e-01  4.16860520e-01  4.17422086e-01  4.19360230e-01
  4.20963535e-01  4.22127541e-01  4.26579255e-01  4.27304065e-01
  4.28373234e-01  4.31210020e-01  4.32005428e-01  4.33383247e-01
  4.34915834e-01  4.37022624e-01  4.38608501e-01  4.40666413e-01
  4.41261463e-01  4.43816170e-01  4.44144009e-01  4.44703481e-01
  4.46800971e-01  4.47095485e-01  4.49700036e-01  4.50211708e-01
  4.53533677e-01  4.55009042e-01  4.56074775e-01  4.56342850e-01
  4.58042945e-01  4.58783733e-01  4.60072183e-01  4.62194632e-01
  4.63547109e-01  4.66342713e-01  4.66734112e-01  4.67312309e-01
  4.68593779e-01  4.69751397e-01  4.72620539e-01  4.73465342e-01
  4.75627954e-01  4.76770050e-01  4.79959379e-01  4.81440531e-01
  4.81826605e-01  4.83472624e-01  4.85693626e-01  4.87045294e-01
  4.88384490e-01  4.89619376e-01  4.91155809e-01  4.93637592e-01
  4.94904343e-01  4.98374953e-01  4.99468805e-01  5.00325027e-01
  5.02102158e-01  5.04191136e-01  5.05161035e-01  5.05741386e-01
  5.06994897e-01  5.10131605e-01  5.11357898e-01  5.12574063e-01
  5.12799509e-01  5.14913081e-01  5.17230036e-01  5.18863544e-01
  5.19750509e-01  5.22871673e-01  5.23878353e-01  5.26153008e-01
  5.26538710e-01  5.28994837e-01  5.29694158e-01  5.32709783e-01
  5.34564741e-01  5.35653789e-01  5.36308359e-01  5.36714402e-01
  5.38919539e-01  5.40272744e-01  5.44194071e-01  5.44771984e-01
  5.45387075e-01  5.47374291e-01  5.48092745e-01  5.48635932e-01
  5.51069748e-01  5.51514971e-01  5.53675644e-01  5.56049068e-01
  5.58618271e-01  5.61136188e-01  5.64021965e-01  5.65537776e-01
  5.67105831e-01  5.70787065e-01  5.71232432e-01  5.74708981e-01
  5.76066056e-01  5.79280472e-01  5.80782731e-01  5.81122037e-01
  5.85180546e-01  5.87335729e-01  5.91288268e-01  5.93219687e-01
  5.94941199e-01  5.98960889e-01  6.01853641e-01  6.03131058e-01
  6.04998651e-01  6.06117737e-01  6.09383410e-01  6.12016804e-01
  6.13515238e-01  6.15575364e-01  6.15900297e-01  6.17805755e-01
  6.20824919e-01  6.22111665e-01  6.24831372e-01  6.25464270e-01
  6.28022177e-01  6.30682890e-01  6.31942329e-01  6.34505766e-01
  6.36344364e-01  6.37929918e-01  6.38277746e-01  6.40607417e-01
  6.45602166e-01  6.46395965e-01  6.48362008e-01  6.51741303e-01
  6.54044716e-01  6.56154331e-01  6.57173184e-01  6.59451949e-01
  6.62141962e-01  6.62617241e-01  6.65479768e-01  6.66873356e-01
  6.70982360e-01  6.72931881e-01  6.73770025e-01  6.77513623e-01
  6.79524391e-01  6.81966819e-01  6.85560949e-01  6.86893897e-01
  6.88326492e-01  6.92654094e-01  6.94796129e-01  6.96352402e-01
  6.98177738e-01  6.99618344e-01  7.01227484e-01  7.04698200e-01
  7.06821548e-01  7.08836101e-01  7.09665135e-01  7.11847883e-01
  7.15124555e-01  7.17879458e-01  7.19089492e-01  7.20970323e-01
  7.24118068e-01  7.25916682e-01  7.26697427e-01  7.27725740e-01
  7.30039427e-01  7.31483369e-01  7.35059330e-01  7.37361873e-01
  7.39724061e-01  7.40823270e-01  7.42940480e-01  7.44578713e-01
  7.46439623e-01  7.47554383e-01  7.49814510e-01  7.53975487e-01
  7.54708855e-01  7.55347456e-01  7.57258343e-01  7.58151876e-01
  7.62934399e-01  7.65403944e-01  7.67536179e-01  7.68579426e-01
  7.70570371e-01  7.71153708e-01  7.72222151e-01  7.75643088e-01
  7.76756750e-01  7.80221842e-01  7.85191705e-01  7.87867085e-01
  7.88860542e-01  7.91105866e-01  7.91758666e-01  7.92768992e-01
  7.94390781e-01  7.97743798e-01  8.00604010e-01  8.01218722e-01
  8.04288146e-01  8.04962564e-01  8.06138471e-01  8.08033753e-01
  8.11207105e-01  8.14431295e-01  8.14867277e-01  8.16318176e-01
  8.17922107e-01  8.20281992e-01  8.24040262e-01  8.29465877e-01
  8.30258266e-01  8.32044484e-01  8.34237054e-01  8.35190592e-01
  8.37659793e-01  8.40408755e-01  8.42938205e-01  8.45141693e-01
  8.47744291e-01  8.48884373e-01  8.53180796e-01  8.53381873e-01
  8.56500824e-01  8.57913250e-01  8.60297235e-01  8.62205171e-01
  8.64558380e-01  8.66712057e-01  8.67350197e-01  8.68976613e-01
  8.71483682e-01  8.73606416e-01  8.75254227e-01  8.78535530e-01
  8.81736409e-01  8.82181687e-01  8.84053920e-01  8.85276202e-01
  8.86792022e-01  8.88705775e-01  8.91373597e-01  8.93962857e-01
  8.94329354e-01  8.96121061e-01  8.96845830e-01  8.98704135e-01
  8.99859625e-01  9.00796455e-01  9.02615159e-01  9.05200945e-01
  9.06544953e-01  9.08436252e-01  9.09788116e-01  9.11066885e-01
  9.12885155e-01  9.16764482e-01  9.18016018e-01  9.19691721e-01
  9.20873211e-01  9.22749157e-01  9.24053943e-01  9.28333535e-01
  9.29920932e-01  9.31903703e-01  9.33655624e-01  9.35535111e-01
  9.35668842e-01  9.38435113e-01  9.39698677e-01  9.43657006e-01
  9.45553859e-01  9.46689994e-01  9.48925114e-01  9.50943272e-01
  9.51516977e-01  9.53982908e-01  9.57575186e-01  9.58966413e-01
  9.59518335e-01  9.61537896e-01  9.65817663e-01  9.67220692e-01
  9.68170675e-01  9.70907011e-01  9.73070583e-01  9.75497681e-01
  9.77128035e-01  9.79318332e-01  9.82015378e-01  9.83906692e-01
  9.84944481e-01  9.86419223e-01  9.88615096e-01  9.90117577e-01
  9.91594015e-01  9.92565634e-01  9.97785868e-01  9.99015058e-01
  1.00088532e+00  1.00235673e+00  1.00323904e+00  1.00420603e+00
  1.00648069e+00  1.00889134e+00  1.01029059e+00  1.01302392e+00
  1.01353003e+00  1.01625856e+00  1.01702118e+00  1.01955741e+00
  1.02053677e+00  1.02105640e+00  1.02265581e+00  1.02738961e+00
  1.02936068e+00  1.02950389e+00  1.03100381e+00  1.03276810e+00
  1.03436839e+00  1.03676959e+00  1.03890975e+00  1.04095781e+00
  1.04354713e+00  1.04638023e+00  1.04831943e+00  1.05017341e+00
  1.05095220e+00  1.05257374e+00  1.05376087e+00  1.05756515e+00
  1.05869110e+00  1.06064297e+00  1.06169331e+00  1.06224310e+00
  1.06323764e+00  1.06696935e+00  1.06840073e+00  1.06974284e+00
  1.07118665e+00  1.07218509e+00  1.07600771e+00  1.07698185e+00
  1.07829516e+00  1.07914808e+00  1.07990374e+00  1.08248759e+00
  1.08392467e+00  1.08578723e+00  1.08706237e+00  1.08887683e+00
  1.08995733e+00  1.09090465e+00  1.09316325e+00  1.09506740e+00
  1.09826637e+00  1.09970533e+00  1.10131125e+00  1.10708991e+00
  1.10769293e+00  1.10850509e+00  1.11260546e+00  1.11383402e+00
  1.11423844e+00  1.11683492e+00  1.11945599e+00  1.12376396e+00
  1.12588936e+00  1.12770523e+00  1.12901209e+00  1.13330394e+00
  1.13481982e+00  1.13950985e+00  1.14081143e+00  1.14400870e+00
  1.14544000e+00  1.14578295e+00  1.14976687e+00  1.15206034e+00
  1.15347315e+00  1.15499255e+00  1.15976856e+00  1.16185275e+00
  1.16294018e+00  1.16400836e+00  1.16488440e+00  1.16852085e+00
  1.16992951e+00  1.17143246e+00  1.17653365e+00  1.17772485e+00
  1.17893922e+00  1.18042532e+00  1.18177503e+00  1.18427491e+00
  1.18695723e+00  1.18913615e+00  1.19228002e+00  1.19484508e+00
  1.19564654e+00  1.19821946e+00  1.20063548e+00  1.20163873e+00
  1.20358405e+00  1.20411471e+00  1.20563838e+00  1.20787875e+00
  1.20980252e+00  1.21299076e+00  1.21584421e+00  1.21740393e+00
  1.22079081e+00  1.22184702e+00  1.22532563e+00  1.22858307e+00
  1.23101583e+00  1.23390930e+00  1.23666814e+00  1.24020450e+00
  1.24042953e+00  1.24232344e+00  1.24369342e+00  1.24489906e+00
  1.24703745e+00  1.24788603e+00  1.25207827e+00  1.25389282e+00
  1.25577642e+00  1.25630910e+00  1.25895447e+00  1.26101728e+00
  1.26382082e+00  1.26687623e+00  1.26852085e+00  1.27048805e+00
  1.27347986e+00  1.27537731e+00  1.27767642e+00  1.28008391e+00
  1.28347852e+00  1.28464934e+00  1.28665785e+00  1.28694629e+00
  1.28888800e+00  1.29168885e+00  1.29425048e+00  1.29776837e+00
  1.29967632e+00  1.30245047e+00  1.30457567e+00  1.30665436e+00
  1.30772223e+00  1.31003598e+00  1.31178678e+00  1.31354817e+00
  1.31380044e+00  1.31748964e+00  1.31810529e+00  1.32045986e+00
  1.32329176e+00  1.32603522e+00  1.32761072e+00  1.33003709e+00
  1.33076906e+00  1.33252431e+00  1.33602981e+00  1.33873663e+00
  1.33901422e+00  1.34302641e+00  1.34449640e+00  1.34763319e+00
  1.35021980e+00  1.35080448e+00  1.35256072e+00  1.35563250e+00
  1.35814178e+00  1.35964139e+00  1.36334883e+00  1.36674211e+00
  1.37035966e+00  1.37162240e+00  1.37470033e+00  1.37962737e+00
  1.38001622e+00  1.38085135e+00  1.38766881e+00  1.38793054e+00
[...]
  3.76585183e+00  3.78709876e+00  3.79474026e+00  3.79879118e+00
  3.82559025e+00  3.87084905e+00  3.87402668e+00  3.87930922e+00
  3.91411083e+00  3.94767168e+00  3.96377121e+00  3.97497552e+00
  3.98783424e+00  4.04488981e+00  4.06107873e+00  4.07404840e+00
  4.09084679e+00  4.10236002e+00  4.11998771e+00  4.12975502e+00
  4.17712545e+00  4.18568587e+00  4.20979341e+00  4.25642773e+00
  4.27549220e+00  4.30184191e+00  4.31939772e+00  4.32612670e+00
  4.40708006e+00  4.42207980e+00  4.44564288e+00  4.45991937e+00
  4.52744504e+00  4.53531578e+00  4.54042550e+00  4.61896266e+00
  4.67453088e+00  4.70068963e+00  4.71399546e+00  4.75543399e+00
  4.79948035e+00  4.84421157e+00  4.85634883e+00  4.96275275e+00
  5.03492785e+00  5.07123349e+00  5.10643042e+00  5.15922957e+00
  5.20536135e+00  5.34324465e+00  5.34819062e+00  5.41621945e+00
  5.45629574e+00  5.51612151e+00  5.51732182e+00  5.54913727e+00
  5.59358780e+00  5.62003872e+00  5.63138646e+00  5.70220000e+00
  5.77198161e+00  5.78076849e+00  5.86530958e+00  5.89795476e+00
  6.00309029e+00  6.01401647e+00  6.10851253e+00  6.13258346e+00
  6.13966977e+00  6.15980887e+00  6.22102529e+00  6.22692808e+00
  6.30601839e+00  6.40837698e+00  6.46466512e+00  6.48481122e+00
  6.50698546e+00  6.61154948e+00  6.66540501e+00  6.74106248e+00
  6.82245112e+00  6.88166763e+00  6.92015992e+00  6.99680027e+00
  7.02403970e+00  7.06172190e+00  7.13066736e+00  7.22877285e+00
  7.24921103e+00  7.32090181e+00  7.36626265e+00  7.38475166e+00
  7.44751668e+00  7.49315399e+00  7.54604981e+00  7.55287239e+00
  7.77251816e+00  7.78313712e+00  7.96214954e+00  8.02769290e+00
  8.12290180e+00  8.47183501e+00  1.13437992e+01  1.31970620e+01
  1.34177977e+01  1.41601097e+01  1.59629135e+01  1.76154529e+01]
    CPU time for vj and vk   2657.19 sec, wall time     83.36 sec
E1 = -2582.555512380555  E_coul = 1109.9755655653657
cycle= 39 E= -549.161619524584  delta_E= -7.47e-10  |g|= 5.23e-06  |ddm|= 0.000343
    CPU time for cycle= 39   2662.42 sec, wall time     83.94 sec
  HOMO = -0.116721021003128  LUMO = -0.0120639989936477
  mo_energy =
[-2.06445064e+01 -2.06438522e+01 -2.05784693e+01 -1.14481445e+01
 -1.13075197e+01 -1.13064591e+01 -2.44340147e+00 -2.43932421e+00
 -2.43792624e+00 -2.43604439e+00 -2.43583137e+00 -2.43552288e+00
 -2.43495554e+00 -2.43300335e+00 -2.43253832e+00 -2.43213218e+00
 -2.43110514e+00 -2.43070230e+00 -2.43051815e+00 -2.43043332e+00
 -2.42934182e+00 -2.42920794e+00 -2.42874509e+00 -2.42708304e+00
 -2.42432304e+00 -2.41969566e+00 -2.41890174e+00 -2.41120772e+00
 -2.40927802e+00 -2.40555393e+00 -2.40162263e+00 -2.40046238e+00
 -2.38807531e+00 -2.38658855e+00 -1.63569034e+00 -1.48461157e+00
 -1.46845288e+00 -1.12859853e+00 -9.83015301e-01 -8.95505645e-01
 -8.29840196e-01 -8.03971412e-01 -7.47564038e-01 -7.20382989e-01
 -6.82868787e-01 -6.77315805e-01 -6.09580702e-01 -5.83514194e-01
 -5.40835971e-01 -5.25320998e-01 -5.03693805e-01 -3.10490396e-01
 -2.72076381e-01 -2.64890933e-01 -2.25926573e-01 -2.22755994e-01
 -2.01416607e-01 -1.90653844e-01 -1.74475614e-01 -1.60519741e-01
 -1.50115776e-01 -1.44750729e-01 -1.28173259e-01 -1.25983736e-01
 -1.16721021e-01 -1.20639990e-02 -2.19786369e-03 -7.11531644e-04
  3.47037452e-03  5.71804429e-03  8.83169745e-03  1.31636430e-02
  1.40295033e-02  1.74784722e-02  1.89401568e-02  2.05799218e-02
  2.38164464e-02  2.59645380e-02  2.83648127e-02  2.97711119e-02
  3.04726625e-02  3.40799366e-02  3.51140821e-02  4.03276389e-02
  4.18371325e-02  4.29506863e-02  4.59409429e-02  4.86372941e-02
  4.98275798e-02  5.29791466e-02  5.40555523e-02  5.63438529e-02
  5.76374167e-02  5.82645072e-02  6.05272551e-02  6.09495393e-02
  6.16492208e-02  6.33212249e-02  6.47924747e-02  6.54388581e-02
  6.59832176e-02  6.68940404e-02  6.86404449e-02  6.96391536e-02
  7.09010332e-02  7.18702861e-02  7.37026181e-02  7.39399683e-02
  7.74490762e-02  8.01807386e-02  8.05176235e-02  8.13480043e-02
  8.20165986e-02  8.34984670e-02  8.38222473e-02  8.63709358e-02
  8.75891763e-02  9.00553502e-02  9.01403057e-02  9.24262841e-02
  9.41292186e-02  9.48750030e-02  9.56162915e-02  9.67510111e-02
  9.77646464e-02  9.90832721e-02  1.01422583e-01  1.02341445e-01
  1.02694699e-01  1.03767784e-01  1.04856937e-01  1.05204994e-01
  1.07364900e-01  1.07548129e-01  1.09254796e-01  1.12118516e-01
  1.13340679e-01  1.13969121e-01  1.16465246e-01  1.16890270e-01
  1.18181597e-01  1.18943061e-01  1.22041756e-01  1.22666404e-01
  1.24653553e-01  1.25799313e-01  1.26694663e-01  1.27212857e-01
  1.29718810e-01  1.30539159e-01  1.32453141e-01  1.32884117e-01
  1.34812655e-01  1.35024853e-01  1.36716565e-01  1.36875542e-01
  1.37790628e-01  1.39660106e-01  1.40915673e-01  1.43881648e-01
  1.44965753e-01  1.46319578e-01  1.47578806e-01  1.50800492e-01
  1.51671084e-01  1.53307288e-01  1.55357490e-01  1.56404877e-01
  1.58047082e-01  1.59574508e-01  1.60301864e-01  1.62848196e-01
  1.63683023e-01  1.66805791e-01  1.67421068e-01  1.68714622e-01
  1.69786809e-01  1.70413407e-01  1.71403803e-01  1.74840377e-01
  1.76674388e-01  1.77407210e-01  1.79776422e-01  1.80910597e-01
  1.82576217e-01  1.85771086e-01  1.87537338e-01  1.89370331e-01
  1.90529898e-01  1.90761909e-01  1.92571071e-01  1.93690457e-01
  1.94893024e-01  1.98650654e-01  1.99192154e-01  2.02190107e-01
  2.03531285e-01  2.04985294e-01  2.05566353e-01  2.08161454e-01
  2.11249708e-01  2.12112959e-01  2.14707393e-01  2.15563241e-01
  2.18304939e-01  2.18515642e-01  2.20184945e-01  2.23164791e-01
  2.23692858e-01  2.24644380e-01  2.25663908e-01  2.26555118e-01
  2.28525974e-01  2.29223557e-01  2.29777328e-01  2.31961196e-01
  2.32608768e-01  2.33591982e-01  2.35102935e-01  2.36746351e-01
  2.37299036e-01  2.38283698e-01  2.39769693e-01  2.41313272e-01
  2.43274161e-01  2.43629050e-01  2.45054974e-01  2.45578513e-01
  2.46456086e-01  2.49483597e-01  2.52992139e-01  2.53947012e-01
  2.55608244e-01  2.58490895e-01  2.61859941e-01  2.63073168e-01
  2.68045185e-01  2.68468719e-01  2.70549874e-01  2.72341463e-01
  2.73107072e-01  2.75987333e-01  2.76670083e-01  2.77441423e-01
  2.80848307e-01  2.84630826e-01  2.86290159e-01  2.87625494e-01
  2.88581176e-01  2.90779168e-01  2.92931224e-01  2.94178610e-01
  2.95083143e-01  2.96910717e-01  3.01376403e-01  3.05437160e-01
  3.08974129e-01  3.10200381e-01  3.11329121e-01  3.12956419e-01
  3.14792550e-01  3.17816751e-01  3.18613516e-01  3.20884996e-01
  3.23846209e-01  3.26403000e-01  3.29577290e-01  3.31624382e-01
  3.33589717e-01  3.36348545e-01  3.37942286e-01  3.40315826e-01
  3.40482282e-01  3.42364704e-01  3.45763507e-01  3.47507240e-01
  3.48178664e-01  3.50745086e-01  3.52206721e-01  3.55571825e-01
  3.56569386e-01  3.58295504e-01  3.60356076e-01  3.61728325e-01
  3.63256197e-01  3.64032618e-01  3.66892279e-01  3.68702066e-01
  3.71671052e-01  3.72953328e-01  3.75018248e-01  3.75638290e-01
  3.77714694e-01  3.80615926e-01  3.85398059e-01  3.86102886e-01
  3.86432267e-01  3.87745797e-01  3.90039893e-01  3.92589506e-01
  3.94446995e-01  3.95302455e-01  3.97985856e-01  3.98945254e-01
  3.99845846e-01  4.01278372e-01  4.05434982e-01  4.06334777e-01
  4.08384461e-01  4.13182365e-01  4.14031938e-01  4.14649388e-01
  4.17695976e-01  4.18968723e-01  4.20079911e-01  4.22837504e-01
  4.23328637e-01  4.26230004e-01  4.27717385e-01  4.29500738e-01
  4.33666030e-01  4.34358178e-01  4.35467053e-01  4.37137867e-01
  4.38196727e-01  4.38939536e-01  4.41363865e-01  4.42989032e-01
  4.43496455e-01  4.45569367e-01  4.47255287e-01  4.48869892e-01
  4.50607761e-01  4.50802243e-01  4.53205774e-01  4.54412204e-01
  4.56152544e-01  4.56988987e-01  4.59096967e-01  4.61217997e-01
  4.63176692e-01  4.65340084e-01  4.66504898e-01  4.67349955e-01
  4.68580154e-01  4.70095461e-01  4.70592653e-01  4.72707907e-01
  4.75164849e-01  4.75437091e-01  4.77231380e-01  4.77627332e-01
  4.78749481e-01  4.81030364e-01  4.81283024e-01  4.83413844e-01
  4.84940269e-01  4.85950651e-01  4.88654868e-01  4.90242350e-01
  4.91744413e-01  4.93174154e-01  4.94354128e-01  4.96334302e-01
  4.98678111e-01  4.99127799e-01  5.01930234e-01  5.04172651e-01
  5.05439616e-01  5.07104866e-01  5.10079755e-01  5.10852478e-01
  5.12359772e-01  5.13014231e-01  5.13251363e-01  5.15304185e-01
  5.16755461e-01  5.19778171e-01  5.21451083e-01  5.23105273e-01
  5.24690747e-01  5.26638516e-01  5.28934833e-01  5.30805842e-01
  5.31588575e-01  5.33766403e-01  5.34748813e-01  5.36855214e-01
  5.38420496e-01  5.38580584e-01  5.41738048e-01  5.44035112e-01
  5.44338771e-01  5.45869030e-01  5.47156500e-01  5.47935281e-01
  5.52232855e-01  5.52438388e-01  5.54242210e-01  5.56586765e-01
  5.57200131e-01  5.58924258e-01  5.59330660e-01  5.60799665e-01
  5.61196667e-01  5.64083078e-01  5.64581707e-01  5.67434251e-01
  5.72859524e-01  5.73862330e-01  5.74630557e-01  5.75827267e-01
  5.78522948e-01  5.79091755e-01  5.84192938e-01  5.85734234e-01
  5.88050149e-01  5.88864162e-01  5.93323355e-01  5.95530992e-01
  5.98261031e-01  5.99737794e-01  6.01830793e-01  6.03447277e-01
  6.04786826e-01  6.08343740e-01  6.12398689e-01  6.13636504e-01
  6.16280882e-01  6.17439194e-01  6.18046407e-01  6.21714397e-01
  6.24142792e-01  6.25263405e-01  6.28174130e-01  6.29090301e-01
  6.31103781e-01  6.32475815e-01  6.36933208e-01  6.37762328e-01
  6.39246598e-01  6.42418332e-01  6.43146733e-01  6.48179662e-01
  6.48760442e-01  6.50041753e-01  6.51800430e-01  6.55443318e-01
  6.57157244e-01  6.60857969e-01  6.61393173e-01  6.63869057e-01
  6.66272370e-01  6.68157797e-01  6.72353483e-01  6.75313271e-01
  6.76225795e-01  6.78565594e-01  6.79205490e-01  6.82622190e-01
  6.84925388e-01  6.87538440e-01  6.88887327e-01  6.92343235e-01
  6.93627792e-01  6.98672032e-01  6.99861072e-01  7.02347991e-01
  7.05273631e-01  7.07403899e-01  7.09250991e-01  7.09839969e-01
  7.12997262e-01  7.14137901e-01  7.16234539e-01  7.17496002e-01
  7.21064460e-01  7.23726949e-01  7.24299414e-01  7.27565437e-01
  7.29386729e-01  7.32562918e-01  7.33208097e-01  7.35761594e-01
  7.38174780e-01  7.39275190e-01  7.41418260e-01  7.43412941e-01
  7.45557717e-01  7.47043653e-01  7.50332142e-01  7.52694620e-01
  7.54542347e-01  7.56132742e-01  7.57595103e-01  7.59774578e-01
  7.61148597e-01  7.61647768e-01  7.64902591e-01  7.66635398e-01
  7.69297766e-01  7.69914620e-01  7.72051131e-01  7.75790321e-01
  7.77937856e-01  7.80416195e-01  7.81707851e-01  7.82257214e-01
  7.83919591e-01  7.86755716e-01  7.88517137e-01  7.90861057e-01
  7.91899985e-01  7.94308042e-01  7.98693415e-01  8.00489545e-01
  8.03420670e-01  8.04971902e-01  8.05086304e-01  8.06791710e-01
  8.09018320e-01  8.11656982e-01  8.12844301e-01  8.14345124e-01
  8.16486577e-01  8.19222018e-01  8.20607494e-01  8.21340959e-01
  8.24273972e-01  8.29171376e-01  8.31112402e-01  8.31851525e-01
  8.32343432e-01  8.34264407e-01  8.37765631e-01  8.43416588e-01
  8.45161619e-01  8.45494498e-01  8.47576146e-01  8.47948441e-01
  8.51597231e-01  8.54393931e-01  8.55402325e-01  8.59550360e-01
  8.61673400e-01  8.63123401e-01  8.66781984e-01  8.67348881e-01
  8.70055151e-01  8.72127082e-01  8.73829758e-01  8.76018215e-01
  8.78840372e-01  8.79648532e-01  8.81132060e-01  8.82376347e-01
  8.86446707e-01  8.87352223e-01  8.89381756e-01  8.91827945e-01
  8.95134818e-01  8.96085656e-01  8.97567461e-01  8.99060247e-01
  9.01062931e-01  9.03460621e-01  9.04312439e-01  9.07772925e-01
  9.08353778e-01  9.08466266e-01  9.10882817e-01  9.11439233e-01
  9.13208823e-01  9.14993636e-01  9.16030366e-01  9.18608785e-01
  9.20722455e-01  9.21854392e-01  9.22057874e-01  9.25218253e-01
  9.27111622e-01  9.29506405e-01  9.33088624e-01  9.33498787e-01
  9.35102183e-01  9.37264932e-01  9.38725024e-01  9.40796398e-01
  9.43422903e-01  9.44929128e-01  9.45830184e-01  9.48405633e-01
  9.49714442e-01  9.51708462e-01  9.53712197e-01  9.57017656e-01
  9.57757504e-01  9.59235660e-01  9.62069786e-01  9.64175360e-01
  9.66642779e-01  9.68125758e-01  9.70399458e-01  9.72134803e-01
  9.72827282e-01  9.75660721e-01  9.79033354e-01  9.80844815e-01
  9.82683795e-01  9.84012681e-01  9.88021906e-01  9.89392986e-01
  9.91023474e-01  9.94167076e-01  9.97060615e-01  9.98434768e-01
  9.99349893e-01  1.00046234e+00  1.00115624e+00  1.00323208e+00
  1.00562399e+00  1.00722103e+00  1.01008360e+00  1.01257930e+00
  1.01497003e+00  1.01545478e+00  1.01771484e+00  1.02016265e+00
  1.02142495e+00  1.02322060e+00  1.02515402e+00  1.02538591e+00
  1.02835452e+00  1.02978104e+00  1.03061017e+00  1.03233478e+00
  1.03405262e+00  1.03492449e+00  1.03713196e+00  1.04029992e+00
  1.04123533e+00  1.04299862e+00  1.04454156e+00  1.04521406e+00
  1.04664404e+00  1.05021645e+00  1.05236763e+00  1.05367614e+00
  1.05629238e+00  1.06088944e+00  1.06110264e+00  1.06329695e+00
  1.06550830e+00  1.06679052e+00  1.06900072e+00  1.07069522e+00
  1.07156236e+00  1.07279237e+00  1.07437587e+00  1.07576800e+00
  1.07634764e+00  1.07991486e+00  1.08297790e+00  1.08340364e+00
  1.08445690e+00  1.08717474e+00  1.08904364e+00  1.09014077e+00
  1.09191984e+00  1.09355961e+00  1.09434215e+00  1.09684697e+00
  1.09730614e+00  1.09952422e+00  1.10047134e+00  1.10350366e+00
  1.10414827e+00  1.10554663e+00  1.10779480e+00  1.10957154e+00
  1.11415309e+00  1.11478037e+00  1.11585482e+00  1.12121182e+00
  1.12278985e+00  1.12452677e+00  1.12789456e+00  1.12882602e+00
  1.12957279e+00  1.13135250e+00  1.13362870e+00  1.13947224e+00
  1.14023727e+00  1.14091632e+00  1.14275468e+00  1.14638762e+00
  1.15109531e+00  1.15300634e+00  1.15513003e+00  1.15792799e+00
  1.15966645e+00  1.16031935e+00  1.16538020e+00  1.16695817e+00
  1.16744761e+00  1.16849460e+00  1.17268729e+00  1.17542664e+00
  1.17661870e+00  1.17814982e+00  1.17929760e+00  1.18216951e+00
  1.18350492e+00  1.18631504e+00  1.18965648e+00  1.19155351e+00
  1.19177573e+00  1.19502154e+00  1.19596973e+00  1.19734387e+00
  1.19962260e+00  1.20376786e+00  1.20588658e+00  1.20955521e+00
  1.21088436e+00  1.21326986e+00  1.21556819e+00  1.21627558e+00
  1.21935967e+00  1.22020609e+00  1.22117717e+00  1.22315988e+00
  1.22667785e+00  1.22777894e+00  1.22888797e+00  1.23216847e+00
  1.23539366e+00  1.23847885e+00  1.23918960e+00  1.24255047e+00
  1.24600290e+00  1.24975151e+00  1.25094925e+00  1.25445733e+00
  1.25636941e+00  1.25794856e+00  1.25900024e+00  1.26073090e+00
  1.26228509e+00  1.26412450e+00  1.26818580e+00  1.27019090e+00
  1.27181736e+00  1.27277133e+00  1.27530174e+00  1.27564371e+00
  1.27815906e+00  1.28199813e+00  1.28552092e+00  1.28649260e+00
  1.28908502e+00  1.29177633e+00  1.29226875e+00  1.29637989e+00
  1.29852278e+00  1.29962614e+00  1.30111951e+00  1.30286800e+00
  1.30502271e+00  1.30578703e+00  1.30955639e+00  1.31294970e+00
  1.31670843e+00  1.31778733e+00  1.32057724e+00  1.32139884e+00
  1.32338558e+00  1.32543327e+00  1.32626423e+00  1.32981651e+00
  1.33066199e+00  1.33149981e+00  1.33342364e+00  1.33670846e+00
  1.33905391e+00  1.34121342e+00  1.34504595e+00  1.34545810e+00
  1.34732331e+00  1.34990385e+00  1.35188027e+00  1.35512280e+00
  1.35683973e+00  1.35878703e+00  1.36057318e+00  1.36422086e+00
  1.36724690e+00  1.36865873e+00  1.37062719e+00  1.37217992e+00
  1.37465001e+00  1.37591185e+00  1.37882070e+00  1.38292258e+00
  1.38675076e+00  1.38729428e+00  1.39170760e+00  1.39625753e+00
  1.39710952e+00  1.39933732e+00  1.40440598e+00  1.40749442e+00
  1.41101667e+00  1.41288660e+00  1.41663452e+00  1.41935711e+00
  1.42094110e+00  1.42746524e+00  1.42972181e+00  1.43236461e+00
  1.43595759e+00  1.43864846e+00  1.44234652e+00  1.44699146e+00
  1.45181972e+00  1.45268463e+00  1.45710325e+00  1.46093369e+00
  1.46356947e+00  1.46444029e+00  1.46939360e+00  1.47199239e+00
  1.47258827e+00  1.47561945e+00  1.47925927e+00  1.48412420e+00
  1.48420797e+00  1.48627544e+00  1.48847546e+00  1.49321216e+00
  1.49812229e+00  1.50299455e+00  1.50754832e+00  1.50967688e+00
  1.51041231e+00  1.51294257e+00  1.51512922e+00  1.51810777e+00
  1.52962878e+00  1.53197179e+00  1.53692717e+00  1.54177231e+00
  1.54236302e+00  1.54744303e+00  1.55030530e+00  1.55288701e+00
  1.55553693e+00  1.56521285e+00  1.56909668e+00  1.57326804e+00
  1.57689994e+00  1.58458096e+00  1.58669957e+00  1.59036070e+00
  1.59393423e+00  1.59642310e+00  1.60000319e+00  1.60692521e+00
  1.61211851e+00  1.61310975e+00  1.62838962e+00  1.63110856e+00
  1.63174871e+00  1.63637707e+00  1.63880182e+00  1.65265269e+00
  1.65398070e+00  1.66462770e+00  1.66518083e+00  1.66952397e+00
  1.67339318e+00  1.68410726e+00  1.69032863e+00  1.69880167e+00
  1.70965184e+00  1.71418483e+00  1.72745327e+00  1.74742402e+00
  1.74989251e+00  1.75755312e+00  1.76685442e+00  1.77829885e+00
  1.79262582e+00  1.80743192e+00  1.84198112e+00  1.84669106e+00
  1.89468376e+00  1.93132544e+00  1.95751380e+00  1.98795899e+00
  2.00777908e+00  2.03141537e+00  2.09222123e+00  2.14550290e+00
  2.18852091e+00  2.27541202e+00  2.31020688e+00  2.37249242e+00
  2.43700111e+00  2.45973370e+00  2.49913485e+00  2.52225032e+00
  2.54097903e+00  2.57367242e+00  2.64525035e+00  2.70340712e+00
  2.72242357e+00  2.73983684e+00  2.81021882e+00  2.83783100e+00
  2.85055848e+00  2.89357609e+00  2.89645051e+00  2.92022100e+00
  2.99969150e+00  3.02831485e+00  3.08638594e+00  3.12925144e+00
  3.14399893e+00  3.16229734e+00  3.19878065e+00  3.22110319e+00
  3.23511181e+00  3.24483054e+00  3.31280107e+00  3.31541970e+00
  3.34250825e+00  3.35232176e+00  3.35672949e+00  3.36186057e+00
  3.37290086e+00  3.40391536e+00  3.43633451e+00  3.44207365e+00
  3.44739174e+00  3.46958431e+00  3.47919803e+00  3.48833281e+00
  3.49279438e+00  3.50585963e+00  3.51375312e+00  3.54249254e+00
  3.54699577e+00  3.55017168e+00  3.55541454e+00  3.57978230e+00
  3.59060909e+00  3.59829926e+00  3.60845202e+00  3.62773268e+00
  3.63589467e+00  3.65112334e+00  3.67544589e+00  3.68723344e+00
  3.71136909e+00  3.71412490e+00  3.72101422e+00  3.73991241e+00
  3.76585192e+00  3.78709898e+00  3.79474017e+00  3.79879123e+00
  3.82559024e+00  3.87084902e+00  3.87402667e+00  3.87930929e+00
  3.91411079e+00  3.94767163e+00  3.96377108e+00  3.97497554e+00
  3.98783416e+00  4.04488975e+00  4.06107867e+00  4.07404834e+00
  4.09084669e+00  4.10235975e+00  4.11998723e+00  4.12975421e+00
  4.17712541e+00  4.18568586e+00  4.20979298e+00  4.25642758e+00
  4.27549211e+00  4.30184185e+00  4.31939780e+00  4.32612663e+00
  4.40708007e+00  4.42207972e+00  4.44564282e+00  4.45991930e+00
  4.52744504e+00  4.53531573e+00  4.54042543e+00  4.61896229e+00
  4.67453083e+00  4.70068955e+00  4.71399535e+00  4.75543353e+00
  4.79948024e+00  4.84421144e+00  4.85634895e+00  4.96275273e+00
  5.03492783e+00  5.07123360e+00  5.10643043e+00  5.15922955e+00
  5.20536136e+00  5.34324471e+00  5.34819069e+00  5.41621937e+00
  5.45629571e+00  5.51612148e+00  5.51732183e+00  5.54913722e+00
  5.59358741e+00  5.62003836e+00  5.63138631e+00  5.70219993e+00
  5.77198159e+00  5.78076854e+00  5.86530966e+00  5.89795477e+00
  6.00309049e+00  6.01401640e+00  6.10851266e+00  6.13258330e+00
  6.13966976e+00  6.15980896e+00  6.22102542e+00  6.22692826e+00
  6.30601845e+00  6.40837723e+00  6.46466531e+00  6.48481136e+00
  6.50698572e+00  6.61154963e+00  6.66540523e+00  6.74106253e+00
  6.82245106e+00  6.88166780e+00  6.92016006e+00  6.99679998e+00
  7.02403926e+00  7.06172180e+00  7.13066725e+00  7.22877314e+00
  7.24921133e+00  7.32090217e+00  7.36626308e+00  7.38475219e+00
  7.44751700e+00  7.49315366e+00  7.54605029e+00  7.55287238e+00
  7.77251831e+00  7.78313761e+00  7.96214936e+00  8.02769307e+00
  8.12290221e+00  8.47183494e+00  1.13437994e+01  1.31970620e+01
  1.34177984e+01  1.41601096e+01  1.59629134e+01  1.76154526e+01]
    CPU time for vj and vk   2359.05 sec, wall time     73.93 sec
E1 = -2582.555528272145  E_coul = 1109.975581456837
Extra cycle  E= -549.161619524703  delta_E= -1.19e-10  |g|= 4.82e-06  |ddm|= 7.73e-05
    CPU time for scf_cycle 137443.94 sec, wall time   4319.90 sec
    CPU time for SCF 137443.98 sec, wall time   4319.91 sec
converged SCF energy = -549.161619524703
