#INFO: **** input file is /burg/ccce/users/eav2136/projects/batteries/01_mp2/hf_script.py ****
#!/usr/bin/env python3
from pyscf import gto, scf, mp
import sys
from fileutils import dump
import h5py

mol = gto.Mole()
mol.verbose = 10
mol.atom = f"geom_{sys.argv[1]}.xyz"
mol.basis = "ccpvtz"
mol.unit = "ANG"
mol.build()

mf = scf.RHF(mol)
# determine the output of mf.kernel()
mf.kernel()

conv = mf.converged
e_tot = mf.e_tot
mo_energy = mf.mo_energy
mo_coeff = mf.mo_coeff

dataout = {}
dataout["e_tot"] = e_tot
dataout["conv"] = conv
dump(dataout, f"data/hf_geom_{sys.argv[1]}.json")

with h5py.File(f"data/hf_geom_{sys.argv[1]}.h5", "w") as f:
    f.create_dataset("mo_energy", data=mo_energy)
    f.create_dataset("mo_coeff", data=mo_coeff)#INFO: ******************** input file end ********************


System: uname_result(system='Linux', node='g146', release='4.18.0-193.el8.x86_64', version='#1 SMP Fri Mar 27 14:35:58 UTC 2020', machine='x86_64')  Threads 32
Python 3.10.12 (main, Jul 29 2023, 11:27:27) [GCC 13.2.0]
numpy 1.25.1  scipy 1.10.1
Date: Fri Jan 19 11:35:52 2024
PySCF version 2.0.1
PySCF path  /burg/berkelbach/users/eav2136/builds/pyscf/projected-cvs/pyscf
GIT ORIG_HEAD 0bfbc692adf3ea63b8a509210433219cd1c472a2
GIT HEAD (branch projected-cvs) e14caaa2dddc538b9be2d86f01e5b456fc92da36

[ENV] PYSCF_TMPDIR /burg/ccce/users/eav2136/projects/batteries/01_mp2/tmp
[ENV] PYSCF_MAX_MEMORY 700000
[CONFIG] DEBUG = False
[CONFIG] MAX_MEMORY = 700000
[CONFIG] TMPDIR = /burg/ccce/users/eav2136/projects/batteries/01_mp2/tmp
[CONFIG] UNIT = angstrom
[CONFIG] VERBOSE = 3
[CONFIG] conf_file = None
[INPUT] verbose = 10
[INPUT] max_memory = 700000 
[INPUT] num. atoms = 28
[INPUT] num. electrons = 100
[INPUT] charge = 0
[INPUT] spin (= nelec alpha-beta = 2S) = 0
[INPUT] symmetry False subgroup None
[INPUT] Mole.unit = ANG
[INPUT]  1 C      4.889700000000   4.599650000000  10.258310000000 AA    9.240193831286   8.692078768856  19.385396400887 Bohr
[INPUT]  2 O      4.870170000000   4.245790000000   8.952570000000 AA    9.203287480073   8.023380282417  16.917905410997 Bohr
[INPUT]  3 C      5.310840000000   5.193710000000   8.233300000000 AA   10.036033091385   9.814689470415  15.558682101382 Bohr
[INPUT]  4 O      5.765780000000   6.111200000000   8.982240000000 AA   10.895745094495  11.548494292442  16.973973585113 Bohr
[INPUT]  5 C      5.774150000000   5.702340000000  10.272330000000 AA   10.911562102157  10.775860869152  19.411890361153 Bohr
[INPUT]  6 O      5.299720000000   5.216150000000   7.112960000000 AA   10.015019336880   9.857094924650  13.441546334986 Bohr
[INPUT]  7 H      5.212360000000   3.798320000000  10.814180000000 AA    9.849932862638   7.177784533458  20.435838461749 Bohr
[INPUT]  8 H      3.953110000000   4.871240000000  10.548100000000 AA    7.470295240279   9.205309487026  19.933020134525 Bohr
[INPUT]  9 H      5.464720000000   6.479910000000  10.867980000000 AA   10.326824147433  12.245255211830  20.537505727251 Bohr
[INPUT] 10 H      6.716790000000   5.418990000000  10.529430000000 AA   12.692893536217  10.240406971757  19.897738947779 Bohr
[INPUT] 11 Li     5.263950000000   5.263950000000   5.263950000000 AA    9.947423833404   9.947423833404   9.947423833404 Bohr
[INPUT] 12 Li     5.263950000000   1.754650000000   5.263950000000 AA    9.947423833404   3.315807944468   9.947423833404 Bohr
[INPUT] 13 Li     8.773250000000   5.263950000000   5.263950000000 AA   16.579039722340   9.947423833404   9.947423833404 Bohr
[INPUT] 14 Li     1.754650000000   5.263950000000   5.263950000000 AA    3.315807944468   9.947423833404   9.947423833404 Bohr
[INPUT] 15 Li     5.263950000000   8.773250000000   5.263950000000 AA    9.947423833404  16.579039722340   9.947423833404 Bohr
[INPUT] 16 Li     7.018600000000   3.509300000000   3.509300000000 AA   13.263231777872   6.631615888936   6.631615888936 Bohr
[INPUT] 17 Li     3.509300000000   3.509300000000   3.509300000000 AA    6.631615888936   6.631615888936   6.631615888936 Bohr
[INPUT] 18 Li     7.018600000000   7.018600000000   3.509300000000 AA   13.263231777872  13.263231777872   6.631615888936 Bohr
[INPUT] 19 Li     3.509300000000   7.018600000000   3.509300000000 AA    6.631615888936  13.263231777872   6.631615888936 Bohr
[INPUT] 20 Li     8.773250000000   1.754650000000   5.263950000000 AA   16.579039722340   3.315807944468   9.947423833404 Bohr
[INPUT] 21 Li     1.754650000000   1.754650000000   5.263950000000 AA    3.315807944468   3.315807944468   9.947423833404 Bohr
[INPUT] 22 Li     8.773250000000   8.773250000000   5.263950000000 AA   16.579039722340  16.579039722340   9.947423833404 Bohr
[INPUT] 23 Li     1.754650000000   8.773250000000   5.263950000000 AA    3.315807944468  16.579039722340   9.947423833404 Bohr
[INPUT] 24 Li     5.263950000000   5.263950000000   1.754650000000 AA    9.947423833404   9.947423833404   3.315807944468 Bohr
[INPUT] 25 Li     5.263950000000   1.754650000000   1.754650000000 AA    9.947423833404   3.315807944468   3.315807944468 Bohr
[INPUT] 26 Li     8.773250000000   5.263950000000   1.754650000000 AA   16.579039722340   9.947423833404   3.315807944468 Bohr
[INPUT] 27 Li     1.754650000000   5.263950000000   1.754650000000 AA    3.315807944468   9.947423833404   3.315807944468 Bohr
[INPUT] 28 Li     5.263950000000   8.773250000000   1.754650000000 AA    9.947423833404  16.579039722340   3.315807944468 Bohr
[INPUT] ---------------- BASIS SET ---------------- 
[INPUT] l, kappa, [nprim/nctr], expnt,             c_1 c_2 ...
[INPUT] C
[INPUT] 0    0    [8    /2   ]  8236              0.000531 -0.000113
                                1235              0.004108 -0.000878
                                280.8             0.021087 -0.00454
                                79.27             0.081853 -0.018133
                                25.59             0.234817 -0.05576
                                8.997             0.434401 -0.126895
                                3.319             0.346129 -0.170352
                                0.3643            -0.008983 0.598684
[INPUT] 0    0    [1    /1   ]  0.9059               1
[INPUT] 0    0    [1    /1   ]  0.1285               1
[INPUT] 1    0    [3    /1   ]  18.71             0.014031
                                4.133             0.086866
                                1.2               0.290216
[INPUT] 1    0    [1    /1   ]  0.3827               1
[INPUT] 1    0    [1    /1   ]  0.1209               1
[INPUT] 2    0    [1    /1   ]  1.097                1
[INPUT] 2    0    [1    /1   ]  0.318                1
[INPUT] 3    0    [1    /1   ]  0.761                1
[INPUT] Li
[INPUT] 0    0    [9    /2   ]  5988              0.000133 -2.1e-05
                                898.9             0.001025 -0.000161
                                205.9             0.005272 -0.00082
                                59.24             0.020929 -0.003326
                                19.87             0.06634 -0.010519
                                7.406             0.165775 -0.028097
                                2.93              0.315038 -0.055936
                                1.189             0.393523 -0.099237
                                0.4798            0.19087 -0.112189
[INPUT] 0    0    [1    /1   ]  0.07509              1
[INPUT] 0    0    [1    /1   ]  0.02832              1
[INPUT] 1    0    [3    /1   ]  3.266             0.00863
                                0.6511            0.047538
                                0.1696            0.209772
[INPUT] 1    0    [1    /1   ]  0.05578              1
[INPUT] 1    0    [1    /1   ]  0.0205               1
[INPUT] 2    0    [1    /1   ]  0.1874               1
[INPUT] 2    0    [1    /1   ]  0.0801               1
[INPUT] 3    0    [1    /1   ]  0.1829               1
[INPUT] H
[INPUT] 0    0    [3    /1   ]  33.87             0.006068
                                5.095             0.045308
                                1.159             0.202822
[INPUT] 0    0    [1    /1   ]  0.3258               1
[INPUT] 0    0    [1    /1   ]  0.1027               1
[INPUT] 1    0    [1    /1   ]  1.407                1
[INPUT] 1    0    [1    /1   ]  0.388                1
[INPUT] 2    0    [1    /1   ]  1.057                1
[INPUT] O
[INPUT] 0    0    [8    /2   ]  15330             0.000508 -0.000115
                                2299              0.003929 -0.000895
                                522.4             0.020243 -0.004636
                                147.3             0.079181 -0.018724
                                47.55             0.230687 -0.058463
                                16.76             0.433118 -0.136463
                                6.207             0.35026 -0.17574
                                0.6882            -0.008154 0.603418
[INPUT] 0    0    [1    /1   ]  1.752                1
[INPUT] 0    0    [1    /1   ]  0.2384               1
[INPUT] 1    0    [3    /1   ]  34.46             0.015928
                                7.749             0.09974
                                2.28              0.310492
[INPUT] 1    0    [1    /1   ]  0.7156               1
[INPUT] 1    0    [1    /1   ]  0.214                1
[INPUT] 2    0    [1    /1   ]  2.314                1
[INPUT] 2    0    [1    /1   ]  0.645                1
[INPUT] 3    0    [1    /1   ]  1.428                1

nuclear repulsion = 640.635856946614
number of shells = 240
number of NR pGTOs = 1090
number of NR cGTOs = 776
basis = ccpvtz
ecp = {}
bas 0, expnt(s) = [8.236e+03 1.235e+03 2.808e+02 7.927e+01 2.559e+01 8.997e+00 3.319e+00
 3.643e-01]
bas 1, expnt(s) = [0.9059]
bas 2, expnt(s) = [0.1285]
bas 3, expnt(s) = [18.71   4.133  1.2  ]
bas 4, expnt(s) = [0.3827]
bas 5, expnt(s) = [0.1209]
bas 6, expnt(s) = [1.097]
bas 7, expnt(s) = [0.318]
bas 8, expnt(s) = [0.761]
bas 9, expnt(s) = [1.533e+04 2.299e+03 5.224e+02 1.473e+02 4.755e+01 1.676e+01 6.207e+00
 6.882e-01]
bas 10, expnt(s) = [1.752]
bas 11, expnt(s) = [0.2384]
bas 12, expnt(s) = [34.46   7.749  2.28 ]
bas 13, expnt(s) = [0.7156]
bas 14, expnt(s) = [0.214]
bas 15, expnt(s) = [2.314]
bas 16, expnt(s) = [0.645]
bas 17, expnt(s) = [1.428]
bas 18, expnt(s) = [8.236e+03 1.235e+03 2.808e+02 7.927e+01 2.559e+01 8.997e+00 3.319e+00
 3.643e-01]
bas 19, expnt(s) = [0.9059]
bas 20, expnt(s) = [0.1285]
bas 21, expnt(s) = [18.71   4.133  1.2  ]
bas 22, expnt(s) = [0.3827]
bas 23, expnt(s) = [0.1209]
bas 24, expnt(s) = [1.097]
bas 25, expnt(s) = [0.318]
bas 26, expnt(s) = [0.761]
bas 27, expnt(s) = [1.533e+04 2.299e+03 5.224e+02 1.473e+02 4.755e+01 1.676e+01 6.207e+00
 6.882e-01]
bas 28, expnt(s) = [1.752]
bas 29, expnt(s) = [0.2384]
bas 30, expnt(s) = [34.46   7.749  2.28 ]
bas 31, expnt(s) = [0.7156]
bas 32, expnt(s) = [0.214]
bas 33, expnt(s) = [2.314]
bas 34, expnt(s) = [0.645]
bas 35, expnt(s) = [1.428]
bas 36, expnt(s) = [8.236e+03 1.235e+03 2.808e+02 7.927e+01 2.559e+01 8.997e+00 3.319e+00
 3.643e-01]
bas 37, expnt(s) = [0.9059]
bas 38, expnt(s) = [0.1285]
bas 39, expnt(s) = [18.71   4.133  1.2  ]
bas 40, expnt(s) = [0.3827]
bas 41, expnt(s) = [0.1209]
bas 42, expnt(s) = [1.097]
bas 43, expnt(s) = [0.318]
bas 44, expnt(s) = [0.761]
bas 45, expnt(s) = [1.533e+04 2.299e+03 5.224e+02 1.473e+02 4.755e+01 1.676e+01 6.207e+00
 6.882e-01]
bas 46, expnt(s) = [1.752]
bas 47, expnt(s) = [0.2384]
bas 48, expnt(s) = [34.46   7.749  2.28 ]
bas 49, expnt(s) = [0.7156]
bas 50, expnt(s) = [0.214]
bas 51, expnt(s) = [2.314]
bas 52, expnt(s) = [0.645]
bas 53, expnt(s) = [1.428]
bas 54, expnt(s) = [33.87   5.095  1.159]
bas 55, expnt(s) = [0.3258]
bas 56, expnt(s) = [0.1027]
bas 57, expnt(s) = [1.407]
bas 58, expnt(s) = [0.388]
bas 59, expnt(s) = [1.057]
bas 60, expnt(s) = [33.87   5.095  1.159]
bas 61, expnt(s) = [0.3258]
bas 62, expnt(s) = [0.1027]
bas 63, expnt(s) = [1.407]
bas 64, expnt(s) = [0.388]
bas 65, expnt(s) = [1.057]
bas 66, expnt(s) = [33.87   5.095  1.159]
bas 67, expnt(s) = [0.3258]
bas 68, expnt(s) = [0.1027]
bas 69, expnt(s) = [1.407]
bas 70, expnt(s) = [0.388]
bas 71, expnt(s) = [1.057]
bas 72, expnt(s) = [33.87   5.095  1.159]
bas 73, expnt(s) = [0.3258]
bas 74, expnt(s) = [0.1027]
bas 75, expnt(s) = [1.407]
bas 76, expnt(s) = [0.388]
bas 77, expnt(s) = [1.057]
bas 78, expnt(s) = [5.988e+03 8.989e+02 2.059e+02 5.924e+01 1.987e+01 7.406e+00 2.930e+00
 1.189e+00 4.798e-01]
bas 79, expnt(s) = [0.07509]
bas 80, expnt(s) = [0.02832]
bas 81, expnt(s) = [3.266  0.6511 0.1696]
bas 82, expnt(s) = [0.05578]
bas 83, expnt(s) = [0.0205]
bas 84, expnt(s) = [0.1874]
bas 85, expnt(s) = [0.0801]
bas 86, expnt(s) = [0.1829]
bas 87, expnt(s) = [5.988e+03 8.989e+02 2.059e+02 5.924e+01 1.987e+01 7.406e+00 2.930e+00
 1.189e+00 4.798e-01]
bas 88, expnt(s) = [0.07509]
bas 89, expnt(s) = [0.02832]
bas 90, expnt(s) = [3.266  0.6511 0.1696]
bas 91, expnt(s) = [0.05578]
bas 92, expnt(s) = [0.0205]
bas 93, expnt(s) = [0.1874]
bas 94, expnt(s) = [0.0801]
bas 95, expnt(s) = [0.1829]
bas 96, expnt(s) = [5.988e+03 8.989e+02 2.059e+02 5.924e+01 1.987e+01 7.406e+00 2.930e+00
 1.189e+00 4.798e-01]
bas 97, expnt(s) = [0.07509]
bas 98, expnt(s) = [0.02832]
bas 99, expnt(s) = [3.266  0.6511 0.1696]
bas 100, expnt(s) = [0.05578]
bas 101, expnt(s) = [0.0205]
bas 102, expnt(s) = [0.1874]
bas 103, expnt(s) = [0.0801]
bas 104, expnt(s) = [0.1829]
bas 105, expnt(s) = [5.988e+03 8.989e+02 2.059e+02 5.924e+01 1.987e+01 7.406e+00 2.930e+00
 1.189e+00 4.798e-01]
bas 106, expnt(s) = [0.07509]
bas 107, expnt(s) = [0.02832]
bas 108, expnt(s) = [3.266  0.6511 0.1696]
bas 109, expnt(s) = [0.05578]
bas 110, expnt(s) = [0.0205]
bas 111, expnt(s) = [0.1874]
bas 112, expnt(s) = [0.0801]
bas 113, expnt(s) = [0.1829]
bas 114, expnt(s) = [5.988e+03 8.989e+02 2.059e+02 5.924e+01 1.987e+01 7.406e+00 2.930e+00
 1.189e+00 4.798e-01]
bas 115, expnt(s) = [0.07509]
bas 116, expnt(s) = [0.02832]
bas 117, expnt(s) = [3.266  0.6511 0.1696]
bas 118, expnt(s) = [0.05578]
bas 119, expnt(s) = [0.0205]
bas 120, expnt(s) = [0.1874]
bas 121, expnt(s) = [0.0801]
bas 122, expnt(s) = [0.1829]
bas 123, expnt(s) = [5.988e+03 8.989e+02 2.059e+02 5.924e+01 1.987e+01 7.406e+00 2.930e+00
 1.189e+00 4.798e-01]
bas 124, expnt(s) = [0.07509]
bas 125, expnt(s) = [0.02832]
bas 126, expnt(s) = [3.266  0.6511 0.1696]
bas 127, expnt(s) = [0.05578]
bas 128, expnt(s) = [0.0205]
bas 129, expnt(s) = [0.1874]
bas 130, expnt(s) = [0.0801]
bas 131, expnt(s) = [0.1829]
bas 132, expnt(s) = [5.988e+03 8.989e+02 2.059e+02 5.924e+01 1.987e+01 7.406e+00 2.930e+00
 1.189e+00 4.798e-01]
bas 133, expnt(s) = [0.07509]
bas 134, expnt(s) = [0.02832]
bas 135, expnt(s) = [3.266  0.6511 0.1696]
bas 136, expnt(s) = [0.05578]
bas 137, expnt(s) = [0.0205]
bas 138, expnt(s) = [0.1874]
bas 139, expnt(s) = [0.0801]
bas 140, expnt(s) = [0.1829]
bas 141, expnt(s) = [5.988e+03 8.989e+02 2.059e+02 5.924e+01 1.987e+01 7.406e+00 2.930e+00
 1.189e+00 4.798e-01]
bas 142, expnt(s) = [0.07509]
bas 143, expnt(s) = [0.02832]
bas 144, expnt(s) = [3.266  0.6511 0.1696]
bas 145, expnt(s) = [0.05578]
bas 146, expnt(s) = [0.0205]
bas 147, expnt(s) = [0.1874]
bas 148, expnt(s) = [0.0801]
bas 149, expnt(s) = [0.1829]
bas 150, expnt(s) = [5.988e+03 8.989e+02 2.059e+02 5.924e+01 1.987e+01 7.406e+00 2.930e+00
 1.189e+00 4.798e-01]
bas 151, expnt(s) = [0.07509]
bas 152, expnt(s) = [0.02832]
bas 153, expnt(s) = [3.266  0.6511 0.1696]
bas 154, expnt(s) = [0.05578]
bas 155, expnt(s) = [0.0205]
bas 156, expnt(s) = [0.1874]
bas 157, expnt(s) = [0.0801]
bas 158, expnt(s) = [0.1829]
bas 159, expnt(s) = [5.988e+03 8.989e+02 2.059e+02 5.924e+01 1.987e+01 7.406e+00 2.930e+00
 1.189e+00 4.798e-01]
bas 160, expnt(s) = [0.07509]
bas 161, expnt(s) = [0.02832]
bas 162, expnt(s) = [3.266  0.6511 0.1696]
bas 163, expnt(s) = [0.05578]
bas 164, expnt(s) = [0.0205]
bas 165, expnt(s) = [0.1874]
bas 166, expnt(s) = [0.0801]
bas 167, expnt(s) = [0.1829]
bas 168, expnt(s) = [5.988e+03 8.989e+02 2.059e+02 5.924e+01 1.987e+01 7.406e+00 2.930e+00
 1.189e+00 4.798e-01]
bas 169, expnt(s) = [0.07509]
bas 170, expnt(s) = [0.02832]
bas 171, expnt(s) = [3.266  0.6511 0.1696]
bas 172, expnt(s) = [0.05578]
bas 173, expnt(s) = [0.0205]
bas 174, expnt(s) = [0.1874]
bas 175, expnt(s) = [0.0801]
bas 176, expnt(s) = [0.1829]
bas 177, expnt(s) = [5.988e+03 8.989e+02 2.059e+02 5.924e+01 1.987e+01 7.406e+00 2.930e+00
 1.189e+00 4.798e-01]
bas 178, expnt(s) = [0.07509]
bas 179, expnt(s) = [0.02832]
bas 180, expnt(s) = [3.266  0.6511 0.1696]
bas 181, expnt(s) = [0.05578]
bas 182, expnt(s) = [0.0205]
bas 183, expnt(s) = [0.1874]
bas 184, expnt(s) = [0.0801]
bas 185, expnt(s) = [0.1829]
bas 186, expnt(s) = [5.988e+03 8.989e+02 2.059e+02 5.924e+01 1.987e+01 7.406e+00 2.930e+00
 1.189e+00 4.798e-01]
bas 187, expnt(s) = [0.07509]
bas 188, expnt(s) = [0.02832]
bas 189, expnt(s) = [3.266  0.6511 0.1696]
bas 190, expnt(s) = [0.05578]
bas 191, expnt(s) = [0.0205]
bas 192, expnt(s) = [0.1874]
bas 193, expnt(s) = [0.0801]
bas 194, expnt(s) = [0.1829]
bas 195, expnt(s) = [5.988e+03 8.989e+02 2.059e+02 5.924e+01 1.987e+01 7.406e+00 2.930e+00
 1.189e+00 4.798e-01]
bas 196, expnt(s) = [0.07509]
bas 197, expnt(s) = [0.02832]
bas 198, expnt(s) = [3.266  0.6511 0.1696]
bas 199, expnt(s) = [0.05578]
bas 200, expnt(s) = [0.0205]
bas 201, expnt(s) = [0.1874]
bas 202, expnt(s) = [0.0801]
bas 203, expnt(s) = [0.1829]
bas 204, expnt(s) = [5.988e+03 8.989e+02 2.059e+02 5.924e+01 1.987e+01 7.406e+00 2.930e+00
 1.189e+00 4.798e-01]
bas 205, expnt(s) = [0.07509]
bas 206, expnt(s) = [0.02832]
bas 207, expnt(s) = [3.266  0.6511 0.1696]
bas 208, expnt(s) = [0.05578]
bas 209, expnt(s) = [0.0205]
bas 210, expnt(s) = [0.1874]
bas 211, expnt(s) = [0.0801]
bas 212, expnt(s) = [0.1829]
bas 213, expnt(s) = [5.988e+03 8.989e+02 2.059e+02 5.924e+01 1.987e+01 7.406e+00 2.930e+00
 1.189e+00 4.798e-01]
bas 214, expnt(s) = [0.07509]
bas 215, expnt(s) = [0.02832]
bas 216, expnt(s) = [3.266  0.6511 0.1696]
bas 217, expnt(s) = [0.05578]
bas 218, expnt(s) = [0.0205]
bas 219, expnt(s) = [0.1874]
bas 220, expnt(s) = [0.0801]
bas 221, expnt(s) = [0.1829]
bas 222, expnt(s) = [5.988e+03 8.989e+02 2.059e+02 5.924e+01 1.987e+01 7.406e+00 2.930e+00
 1.189e+00 4.798e-01]
bas 223, expnt(s) = [0.07509]
bas 224, expnt(s) = [0.02832]
bas 225, expnt(s) = [3.266  0.6511 0.1696]
bas 226, expnt(s) = [0.05578]
bas 227, expnt(s) = [0.0205]
bas 228, expnt(s) = [0.1874]
bas 229, expnt(s) = [0.0801]
bas 230, expnt(s) = [0.1829]
bas 231, expnt(s) = [5.988e+03 8.989e+02 2.059e+02 5.924e+01 1.987e+01 7.406e+00 2.930e+00
 1.189e+00 4.798e-01]
bas 232, expnt(s) = [0.07509]
bas 233, expnt(s) = [0.02832]
bas 234, expnt(s) = [3.266  0.6511 0.1696]
bas 235, expnt(s) = [0.05578]
bas 236, expnt(s) = [0.0205]
bas 237, expnt(s) = [0.1874]
bas 238, expnt(s) = [0.0801]
bas 239, expnt(s) = [0.1829]
CPU time:         0.90
arg.atm = [[  6  20   1  23   0   0]
 [  8  24   1  27   0   0]
 [  6  28   1  31   0   0]
 [  8  32   1  35   0   0]
 [  6  36   1  39   0   0]
 [  8  40   1  43   0   0]
 [  1  44   1  47   0   0]
 [  1  48   1  51   0   0]
 [  1  52   1  55   0   0]
 [  1  56   1  59   0   0]
 [  3  60   1  63   0   0]
 [  3  64   1  67   0   0]
 [  3  68   1  71   0   0]
 [  3  72   1  75   0   0]
 [  3  76   1  79   0   0]
 [  3  80   1  83   0   0]
 [  3  84   1  87   0   0]
 [  3  88   1  91   0   0]
 [  3  92   1  95   0   0]
 [  3  96   1  99   0   0]
 [  3 100   1 103   0   0]
 [  3 104   1 107   0   0]
 [  3 108   1 111   0   0]
 [  3 112   1 115   0   0]
 [  3 116   1 119   0   0]
 [  3 120   1 123   0   0]
 [  3 124   1 127   0   0]
 [  3 128   1 131   0   0]]
arg.bas = [[  0   0   8 ... 132 140   0]
 [  0   0   1 ... 156 157   0]
 [  0   0   1 ... 158 159   0]
 ...
 [ 27   2   1 ... 217 218   0]
 [ 27   2   1 ... 219 220   0]
 [ 27   3   1 ... 221 222   0]]
arg.env = [ 0.00000000e+00  0.00000000e+00  0.00000000e+00  0.00000000e+00
  0.00000000e+00  0.00000000e+00  0.00000000e+00  0.00000000e+00
  0.00000000e+00  0.00000000e+00  0.00000000e+00  0.00000000e+00
  0.00000000e+00  0.00000000e+00  0.00000000e+00  0.00000000e+00
  0.00000000e+00  0.00000000e+00  0.00000000e+00  0.00000000e+00
  9.24019383e+00  8.69207877e+00  1.93853964e+01  0.00000000e+00
  9.20328748e+00  8.02338028e+00  1.69179054e+01  0.00000000e+00
  1.00360331e+01  9.81468947e+00  1.55586821e+01  0.00000000e+00
  1.08957451e+01  1.15484943e+01  1.69739736e+01  0.00000000e+00
  1.09115621e+01  1.07758609e+01  1.94118904e+01  0.00000000e+00
  1.00150193e+01  9.85709492e+00  1.34415463e+01  0.00000000e+00
  9.84993286e+00  7.17778453e+00  2.04358385e+01  0.00000000e+00
  7.47029524e+00  9.20530949e+00  1.99330201e+01  0.00000000e+00
  1.03268241e+01  1.22452552e+01  2.05375057e+01  0.00000000e+00
  1.26928935e+01  1.02404070e+01  1.98977389e+01  0.00000000e+00
  9.94742383e+00  9.94742383e+00  9.94742383e+00  0.00000000e+00
  9.94742383e+00  3.31580794e+00  9.94742383e+00  0.00000000e+00
  1.65790397e+01  9.94742383e+00  9.94742383e+00  0.00000000e+00
  3.31580794e+00  9.94742383e+00  9.94742383e+00  0.00000000e+00
  9.94742383e+00  1.65790397e+01  9.94742383e+00  0.00000000e+00
  1.32632318e+01  6.63161589e+00  6.63161589e+00  0.00000000e+00
  6.63161589e+00  6.63161589e+00  6.63161589e+00  0.00000000e+00
  1.32632318e+01  1.32632318e+01  6.63161589e+00  0.00000000e+00
  6.63161589e+00  1.32632318e+01  6.63161589e+00  0.00000000e+00
  1.65790397e+01  3.31580794e+00  9.94742383e+00  0.00000000e+00
  3.31580794e+00  3.31580794e+00  9.94742383e+00  0.00000000e+00
  1.65790397e+01  1.65790397e+01  9.94742383e+00  0.00000000e+00
  3.31580794e+00  1.65790397e+01  9.94742383e+00  0.00000000e+00
  9.94742383e+00  9.94742383e+00  3.31580794e+00  0.00000000e+00
  9.94742383e+00  3.31580794e+00  3.31580794e+00  0.00000000e+00
  1.65790397e+01  9.94742383e+00  3.31580794e+00  0.00000000e+00
  3.31580794e+00  9.94742383e+00  3.31580794e+00  0.00000000e+00
  9.94742383e+00  1.65790397e+01  3.31580794e+00  0.00000000e+00
  8.23600000e+03  1.23500000e+03  2.80800000e+02  7.92700000e+01
  2.55900000e+01  8.99700000e+00  3.31900000e+00  3.64300000e-01
  1.18480296e+00  2.20874210e+00  3.73316324e+00  5.61216719e+00
  6.89519583e+00  5.82409515e+00  2.19663441e+00 -1.08712663e-02
 -4.28969670e-01 -8.03166571e-01 -1.36745981e+00 -2.11525239e+00
 -2.78571299e+00 -2.89453423e+00 -1.83934657e+00  1.23268730e+00
  9.05900000e-01  2.34598494e+00  1.28500000e-01  5.42241022e-01
  1.87100000e+01  4.13300000e+00  1.20000000e+00  4.47572721e+00
  4.19627876e+00  2.98800046e+00  3.82700000e-01  8.78127282e-01
  1.20900000e-01  2.07977938e-01  1.09700000e+00  3.06825171e+00
  3.18000000e-01  3.51379844e-01  7.61000000e-01  1.06690522e+00
  5.98800000e+03  8.98900000e+02  2.05900000e+02  5.92400000e+01
  1.98700000e+01  7.40600000e+00  2.93000000e+00  1.18900000e+00
  4.79800000e-01  2.29069316e-01  4.25756548e-01  7.25056076e-01
  1.13074246e+00  1.57971158e+00  1.88304523e+00  1.78512072e+00
  1.13373211e+00  2.78411257e-01 -1.33552750e-01 -2.46934407e-01
 -4.16416863e-01 -6.63522613e-01 -9.24900580e-01 -1.17847379e+00
 -1.17034612e+00 -1.05567981e+00 -6.04251387e-01  7.50900000e-02
  3.62411193e-01  2.83200000e-02  1.74415453e-01  3.26600000e+00
  6.51100000e-01  1.69600000e-01  4.55280795e-01  3.34078737e-01
  2.74333054e-01  5.57800000e-02  7.90828897e-02  2.05000000e-02
  2.26295917e-02  1.87400000e-01  1.39275961e-01  8.01000000e-02
  3.14692425e-02  1.82900000e-01  4.31510332e-02  3.38700000e+01
  5.09500000e+00  1.15900000e+00  9.04334519e-01  1.63100455e+00
  2.40491525e+00  3.25800000e-01  1.08950276e+00  1.02700000e-01
  4.58345379e-01  1.40700000e+00  4.47045795e+00  3.88000000e-01
  8.93354953e-01  1.05700000e+00  2.87515071e+00  1.53300000e+04
  2.29900000e+03  5.22400000e+02  1.47300000e+02  4.75500000e+01
  1.67600000e+01  6.20700000e+00  6.88200000e-01  1.81067529e+00
  3.37486577e+00  5.72265412e+00  8.66150357e+00  1.08070276e+01
  9.28179538e+00  3.56346173e+00 -1.59395830e-02 -6.86527364e-01
 -1.28759909e+00 -2.19507417e+00 -3.43047366e+00 -4.58719692e+00
 -4.89805685e+00 -2.99457591e+00  1.97563931e+00  1.75200000e+00
  3.84738459e+00  2.38400000e-01  8.61975084e-01  3.44600000e+01
  7.74900000e+00  2.28000000e+00  1.00262994e+01  9.72213774e+00
  6.55849668e+00  7.15600000e-01  1.92009319e+00  2.14000000e-01
  4.24621137e-01  2.31400000e+00  1.13283134e+01  6.45000000e-01
  1.21132000e+00  1.42800000e+00  4.39692268e+00]
ecpbas  = []


******** <class 'pyscf.scf.hf.RHF'> ********
method = RHF
initial guess = minao
damping factor = 0
level_shift factor = 0
DIIS = <class 'pyscf.scf.diis.CDIIS'>
diis_start_cycle = 1
diis_space = 8
SCF conv_tol = 1e-09
SCF conv_tol_grad = None
SCF max_cycles = 50
direct_scf = True
direct_scf_tol = 1e-13
chkfile to save SCF result = /burg/ccce/users/eav2136/projects/batteries/01_mp2/tmp/tmpl992y632
max_memory 700000 MB (current use 95 MB)
Set gradient conv threshold to 3.16228e-05
Nelec from initial guess = 99.99816013776578
E1 = -1914.3717319484285  E_coul = 795.3065649004797
init E= -478.429310101335
cond(S) = 569062.555318179
    CPU time for initialize scf   1793.60 sec, wall time     57.32 sec
  HOMO = -0.118848434921936  LUMO = -0.0601304177382042
  mo_energy =
[-2.08436401e+01 -2.07936101e+01 -2.07926177e+01 -1.13786024e+01
 -1.13528357e+01 -1.13477153e+01 -2.52027001e+00 -2.51387320e+00
 -2.51387135e+00 -2.51283351e+00 -2.51279033e+00 -2.50535271e+00
 -2.49487240e+00 -2.49411656e+00 -2.49411018e+00 -2.49354583e+00
 -2.49087264e+00 -2.49042851e+00 -2.49042732e+00 -2.49010267e+00
 -2.48564335e+00 -2.48556479e+00 -2.48555355e+00 -2.48545665e+00
 -2.16878750e+00 -1.79613315e+00 -1.65780500e+00 -1.33707030e+00
 -1.05210680e+00 -9.01285388e-01 -8.03088814e-01 -7.85299032e-01
 -6.88610071e-01 -6.63217513e-01 -6.21382597e-01 -5.70013974e-01
 -5.24927597e-01 -5.00309806e-01 -4.93991920e-01 -4.37915539e-01
 -4.04052594e-01 -3.24587786e-01 -3.13797349e-01 -3.13360338e-01
 -2.06650729e-01 -1.64611015e-01 -1.63977124e-01 -1.42052815e-01
 -1.19069643e-01 -1.18848435e-01 -6.01304177e-02 -5.97613694e-02
 -3.76603122e-02 -3.75193529e-02 -3.33829359e-02 -2.82578439e-02
 -1.92848330e-02 -1.58739400e-02  8.68438193e-03  9.29412495e-03
  9.36626084e-03  9.74457096e-03  1.08492098e-02  1.71388948e-02
  1.76600791e-02  2.11266983e-02  2.39896533e-02  2.81367573e-02
  2.84773771e-02  4.01392072e-02  4.02436571e-02  4.30810703e-02
  4.94027220e-02  5.07804036e-02  5.16142880e-02  5.16975727e-02
  5.39873651e-02  5.44949379e-02  5.75909369e-02  5.76890358e-02
  5.80254730e-02  6.04329974e-02  6.21529262e-02  6.28741991e-02
  6.48165854e-02  6.82253496e-02  6.87791706e-02  7.11624266e-02
  7.12849320e-02  7.20005528e-02  7.21779427e-02  7.57084086e-02
  7.62419780e-02  7.87267498e-02  7.93295968e-02  7.94458917e-02
  8.16676299e-02  8.33436887e-02  8.70923046e-02  8.81770771e-02
  9.09286460e-02  9.37728026e-02  9.52741061e-02  9.68009172e-02
  9.88105020e-02  9.93088734e-02  1.05373697e-01  1.08105871e-01
  1.10701863e-01  1.11154923e-01  1.11231208e-01  1.14406623e-01
  1.17479882e-01  1.18235511e-01  1.18578331e-01  1.20214200e-01
  1.20733342e-01  1.24224986e-01  1.25895004e-01  1.27271606e-01
  1.28156611e-01  1.28820239e-01  1.30793712e-01  1.34876009e-01
  1.36091164e-01  1.38017815e-01  1.38834433e-01  1.40895230e-01
  1.41739299e-01  1.46813492e-01  1.49773187e-01  1.49893504e-01
  1.50269762e-01  1.50853726e-01  1.53123380e-01  1.55169243e-01
  1.55702017e-01  1.56827311e-01  1.60928472e-01  1.63999040e-01
  1.64213668e-01  1.66961613e-01  1.77628695e-01  1.82666957e-01
  1.83631853e-01  1.84582140e-01  1.86503430e-01  1.89389204e-01
  1.93968309e-01  1.94868550e-01  1.95002369e-01  1.95312218e-01
  1.97947199e-01  1.99569539e-01  2.01674696e-01  2.02553606e-01
  2.04854797e-01  2.05698634e-01  2.09212006e-01  2.13911058e-01
  2.16596051e-01  2.16899983e-01  2.18637249e-01  2.19633791e-01
  2.19827612e-01  2.20086574e-01  2.20348788e-01  2.24232979e-01
  2.26215746e-01  2.28191415e-01  2.28999243e-01  2.32295601e-01
  2.33936257e-01  2.34189063e-01  2.39873703e-01  2.41726097e-01
  2.44458466e-01  2.46362520e-01  2.58178584e-01  2.58492772e-01
  2.60652522e-01  2.63856861e-01  2.65950378e-01  2.77089852e-01
  2.77776594e-01  2.78319049e-01  2.80397304e-01  2.81961595e-01
  2.88628517e-01  2.91146798e-01  2.91446192e-01  2.91945572e-01
  2.94125762e-01  2.98595979e-01  2.99548855e-01  2.99904809e-01
  3.00485088e-01  3.01736367e-01  3.04327020e-01  3.06092279e-01
  3.12627684e-01  3.13408332e-01  3.15425692e-01  3.17855386e-01
  3.20138450e-01  3.25178547e-01  3.27019963e-01  3.30411756e-01
  3.39806874e-01  3.40638652e-01  3.41353404e-01  3.41955114e-01
  3.43224790e-01  3.48859957e-01  3.50904272e-01  3.51492473e-01
  3.53003543e-01  3.59284196e-01  3.69584664e-01  3.70049594e-01
  3.73868711e-01  3.75221355e-01  3.75594471e-01  3.80331487e-01
  3.81546958e-01  3.82438272e-01  3.82648026e-01  3.84355209e-01
  3.85023920e-01  3.85619542e-01  3.95027298e-01  3.95720250e-01
  3.98065602e-01  3.98191579e-01  3.99412049e-01  4.02638547e-01
  4.05405209e-01  4.07729343e-01  4.09186466e-01  4.10246681e-01
  4.11157623e-01  4.11782374e-01  4.14109516e-01  4.16612207e-01
  4.17707587e-01  4.19835557e-01  4.26827636e-01  4.30553486e-01
  4.31160382e-01  4.36561997e-01  4.40547105e-01  4.41605206e-01
  4.42541209e-01  4.43193963e-01  4.47681749e-01  4.49186516e-01
  4.49424470e-01  4.52114056e-01  4.53488229e-01  4.54431168e-01
  4.55305679e-01  4.58890139e-01  4.60656488e-01  4.68450427e-01
  4.68987897e-01  4.71462059e-01  4.73008098e-01  4.74384253e-01
  4.80695368e-01  4.82124096e-01  4.83481452e-01  4.84421458e-01
  4.86567847e-01  4.92018492e-01  4.92979019e-01  4.95246087e-01
  4.98785118e-01  4.99647381e-01  5.04898044e-01  5.05155142e-01
  5.09619208e-01  5.13180705e-01  5.13342857e-01  5.14616239e-01
  5.16228426e-01  5.17207212e-01  5.18869012e-01  5.19638540e-01
  5.19943199e-01  5.24424136e-01  5.25832046e-01  5.27117385e-01
  5.28397050e-01  5.29570362e-01  5.40328276e-01  5.42264475e-01
  5.45046923e-01  5.48815636e-01  5.51441779e-01  5.54738637e-01
  5.56535013e-01  5.59905598e-01  5.60808905e-01  5.62808414e-01
  5.64902688e-01  5.71381961e-01  5.85537644e-01  5.88512772e-01
  5.89633337e-01  5.94877797e-01  5.96749943e-01  5.98144157e-01
  6.00115566e-01  6.05927845e-01  6.07464551e-01  6.18116299e-01
  6.21638721e-01  6.24960499e-01  6.28303869e-01  6.30094678e-01
  6.31174569e-01  6.37620334e-01  6.38084493e-01  6.39714046e-01
  6.40487388e-01  6.43563873e-01  6.49652485e-01  6.57006611e-01
  6.58951413e-01  6.61230472e-01  6.62093715e-01  6.62717507e-01
  6.66447491e-01  6.67099578e-01  6.68827019e-01  6.70215287e-01
  6.70821938e-01  6.73379197e-01  6.75719563e-01  6.79603216e-01
  6.82766287e-01  6.85754489e-01  6.89429074e-01  6.89996410e-01
  6.92298449e-01  6.93845540e-01  6.95395352e-01  6.95962871e-01
  6.98790760e-01  7.03039655e-01  7.03661668e-01  7.06604262e-01
  7.09463553e-01  7.13540202e-01  7.17025106e-01  7.20664310e-01
  7.25703413e-01  7.26434861e-01  7.33416308e-01  7.35422445e-01
  7.37659320e-01  7.39584713e-01  7.44075978e-01  7.46255874e-01
  7.48172422e-01  7.48666839e-01  7.53882418e-01  7.54341981e-01
  7.55739444e-01  7.60352974e-01  7.65784794e-01  7.72856327e-01
  7.77273938e-01  7.77961356e-01  7.83793582e-01  7.85592593e-01
  7.88227225e-01  7.89162410e-01  7.89476488e-01  7.94196327e-01
  7.95685970e-01  7.96152380e-01  8.01581983e-01  8.02432113e-01
  8.06397179e-01  8.07934029e-01  8.09627345e-01  8.10030031e-01
  8.10649091e-01  8.13879206e-01  8.14422350e-01  8.17819667e-01
  8.17998519e-01  8.20799664e-01  8.24231944e-01  8.25757178e-01
  8.26109522e-01  8.26990396e-01  8.34737105e-01  8.36126787e-01
  8.37474932e-01  8.38011120e-01  8.41637666e-01  8.43615125e-01
  8.46402584e-01  8.47727605e-01  8.53907157e-01  8.60076629e-01
  8.60588172e-01  8.62007139e-01  8.67040177e-01  8.67613137e-01
  8.70376960e-01  8.74352475e-01  8.74773933e-01  8.76988586e-01
  8.80294729e-01  8.81568057e-01  8.87145647e-01  8.88905558e-01
  8.90842849e-01  8.92174344e-01  8.95087030e-01  8.95567097e-01
  8.99428665e-01  8.99999514e-01  9.03039708e-01  9.03427409e-01
  9.04679453e-01  9.07247843e-01  9.10436533e-01  9.15146161e-01
  9.17508168e-01  9.19145797e-01  9.22194831e-01  9.22734648e-01
  9.27916219e-01  9.28350414e-01  9.38168282e-01  9.39459452e-01
  9.44368606e-01  9.46870487e-01  9.48762171e-01  9.49841879e-01
  9.51426228e-01  9.54844187e-01  9.61151132e-01  9.63590330e-01
  9.68079411e-01  9.70747634e-01  9.72272420e-01  9.73390329e-01
  9.77764235e-01  9.78380043e-01  9.81155786e-01  9.81567101e-01
  9.85017195e-01  9.85849253e-01  9.96381718e-01  9.97933707e-01
  1.00127050e+00  1.00435616e+00  1.00671099e+00  1.00857431e+00
  1.01042082e+00  1.01233529e+00  1.01618205e+00  1.01719246e+00
  1.02331877e+00  1.02463603e+00  1.02593584e+00  1.02984771e+00
  1.03549680e+00  1.03694956e+00  1.03922974e+00  1.04372713e+00
  1.04553999e+00  1.04658281e+00  1.04675678e+00  1.05077624e+00
  1.05212200e+00  1.05364415e+00  1.05401573e+00  1.05772149e+00
  1.05944308e+00  1.06501534e+00  1.06663290e+00  1.07230057e+00
  1.07939728e+00  1.07988356e+00  1.08067263e+00  1.08127605e+00
  1.08533576e+00  1.08764712e+00  1.09406320e+00  1.09518994e+00
  1.10640090e+00  1.11154392e+00  1.11290464e+00  1.11706281e+00
  1.12049638e+00  1.12076459e+00  1.12449102e+00  1.12636537e+00
  1.13293132e+00  1.13379843e+00  1.13561194e+00  1.13765924e+00
  1.14818514e+00  1.15277230e+00  1.15907028e+00  1.15957981e+00
  1.16212657e+00  1.16301379e+00  1.16444306e+00  1.17146170e+00
  1.17328511e+00  1.17897697e+00  1.18190396e+00  1.18735699e+00
  1.19029367e+00  1.19110737e+00  1.19372781e+00  1.19564232e+00
  1.20014751e+00  1.20959904e+00  1.21382817e+00  1.21522872e+00
  1.21650433e+00  1.21811652e+00  1.21826561e+00  1.22603063e+00
  1.22652756e+00  1.23391915e+00  1.23708131e+00  1.23951914e+00
  1.24430047e+00  1.24548715e+00  1.24987783e+00  1.25744834e+00
  1.26196842e+00  1.26382329e+00  1.26450995e+00  1.26939278e+00
  1.27251205e+00  1.27589925e+00  1.27786804e+00  1.28405776e+00
  1.29097703e+00  1.29127557e+00  1.29665830e+00  1.29906070e+00
  1.30260076e+00  1.30353797e+00  1.30705990e+00  1.30850268e+00
  1.30925296e+00  1.31168209e+00  1.31504864e+00  1.32673963e+00
  1.33142724e+00  1.33608154e+00  1.34287403e+00  1.34970210e+00
  1.35036244e+00  1.35659701e+00  1.35733736e+00  1.36046411e+00
  1.36317595e+00  1.36697896e+00  1.37343986e+00  1.37533950e+00
  1.37879474e+00  1.38015806e+00  1.38429404e+00  1.39247005e+00
  1.40402884e+00  1.40628437e+00  1.41473733e+00  1.41703376e+00
  1.42320239e+00  1.42353721e+00  1.43252858e+00  1.43524416e+00
  1.44513980e+00  1.45748821e+00  1.46177562e+00  1.47429422e+00
  1.49115566e+00  1.49626073e+00  1.50162221e+00  1.50291636e+00
  1.50646387e+00  1.52387520e+00  1.55156896e+00  1.56956688e+00
  1.58039186e+00  1.58193917e+00  1.59230001e+00  1.60231478e+00
  1.60915922e+00  1.65514194e+00  1.67018200e+00  1.69148623e+00
  1.74195839e+00  1.81046629e+00  1.82116353e+00  1.87589862e+00
  1.88551402e+00  1.91451941e+00  1.95466831e+00  2.00397918e+00
  2.05519777e+00  2.06407960e+00  2.14478263e+00  2.21996985e+00
  2.27291464e+00  2.32334593e+00  2.38499926e+00  2.40994470e+00
  2.46006967e+00  2.47248215e+00  2.50156924e+00  2.55557178e+00
  2.62248553e+00  2.68692584e+00  2.70585518e+00  2.71177590e+00
  2.75740306e+00  2.80767450e+00  2.85033218e+00  2.85356991e+00
  2.86499392e+00  2.88338420e+00  2.97130205e+00  3.00877246e+00
  3.01633573e+00  3.06617079e+00  3.10946530e+00  3.13063223e+00
  3.14775450e+00  3.18310732e+00  3.20036188e+00  3.24057711e+00
  3.27312451e+00  3.27459962e+00  3.29297228e+00  3.30613531e+00
  3.32176582e+00  3.34768156e+00  3.34988740e+00  3.35187297e+00
  3.35614454e+00  3.37564789e+00  3.37985485e+00  3.40675495e+00
  3.40974682e+00  3.41756351e+00  3.43976789e+00  3.45051639e+00
  3.46901623e+00  3.48648121e+00  3.49146807e+00  3.49708097e+00
  3.49880831e+00  3.53118385e+00  3.53456716e+00  3.54854783e+00
  3.61730222e+00  3.64869770e+00  3.67851620e+00  3.68534822e+00
  3.68939127e+00  3.74827584e+00  3.76836668e+00  3.79837878e+00
  3.80154078e+00  3.85240990e+00  3.86747196e+00  3.87077198e+00
  3.87479450e+00  3.90575896e+00  3.90887522e+00  3.92524532e+00
  3.95559973e+00  3.98224016e+00  4.03794146e+00  4.04309100e+00
  4.06796182e+00  4.06948187e+00  4.10000714e+00  4.15315792e+00
  4.24634301e+00  4.28145101e+00  4.29076995e+00  4.29579847e+00
  4.36232894e+00  4.38656923e+00  4.39361763e+00  4.43314898e+00
  4.43695138e+00  4.50390510e+00  4.53040471e+00  4.53582482e+00
  4.60222733e+00  4.64248554e+00  4.66092438e+00  4.67321421e+00
  4.70885539e+00  4.78639211e+00  4.82075346e+00  4.93955253e+00
  5.00106599e+00  5.03315759e+00  5.05953526e+00  5.12011656e+00
  5.13217786e+00  5.29398445e+00  5.31224062e+00  5.37541220e+00
  5.42807080e+00  5.43203628e+00  5.43290762e+00  5.47855770e+00
  5.51367855e+00  5.51553013e+00  5.57880739e+00  5.65368372e+00
  5.72093207e+00  5.74090431e+00  5.82328848e+00  5.83716131e+00
  5.94904843e+00  5.95431297e+00  6.02746745e+00  6.05552660e+00
  6.09729866e+00  6.11473388e+00  6.15013682e+00  6.16598468e+00
  6.25312789e+00  6.34774587e+00  6.41835158e+00  6.42242322e+00
  6.42388414e+00  6.53889569e+00  6.60151744e+00  6.64048853e+00
  6.68973223e+00  6.77030906e+00  6.82843054e+00  6.87280228e+00
  6.87451730e+00  6.95390052e+00  7.01651134e+00  7.11494036e+00
  7.15037410e+00  7.22383930e+00  7.25994201e+00  7.27311188e+00
  7.30425448e+00  7.36674253e+00  7.42397331e+00  7.45054150e+00
  7.63289483e+00  7.69100019e+00  7.82073553e+00  7.90306592e+00
  8.02349382e+00  8.37648972e+00  1.11822144e+01  1.30775220e+01
  1.33037385e+01  1.40597276e+01  1.58883579e+01  1.74870500e+01]
E1 = -1920.329935599601  E_coul = 805.2673175252511
cycle= 1 E= -474.426761127736  delta_E=    4  |g|= 0.974  |ddm|=  4.2
    CPU time for cycle= 1    327.72 sec, wall time     10.64 sec
diis-norm(errvec)=3.75612
diis-c [-14.10844399   1.        ]
  HOMO = -0.0693706541525436  LUMO = 0.0148022552157287
  mo_energy =
[-2.06090602e+01 -2.06090056e+01 -2.02663400e+01 -1.16847937e+01
 -1.14529593e+01 -1.14519695e+01 -2.45113162e+00 -2.45069735e+00
 -2.44798726e+00 -2.44785437e+00 -2.40393441e+00 -2.40380269e+00
 -2.40139581e+00 -2.40119739e+00 -2.39322132e+00 -2.39311169e+00
 -2.39307186e+00 -2.39288003e+00 -2.29790054e+00 -2.29773052e+00
 -2.29691452e+00 -2.29685217e+00 -2.27553514e+00 -2.24896093e+00
 -1.69732996e+00 -1.51320584e+00 -1.43811537e+00 -1.20629810e+00
 -1.04092133e+00 -9.37373330e-01 -8.80850405e-01 -8.20936363e-01
 -7.89803409e-01 -7.21579201e-01 -7.10101737e-01 -6.39756939e-01
 -6.22404902e-01 -6.08246452e-01 -5.39051544e-01 -4.72471726e-01
 -4.32040233e-01 -2.23083067e-01 -1.88564770e-01 -1.86559051e-01
 -1.36532953e-01 -1.33341920e-01 -1.12723398e-01 -9.35516062e-02
 -9.19176232e-02 -6.93706542e-02  1.48022552e-02  1.57417551e-02
  1.73849697e-02  1.95605852e-02  2.06529367e-02  2.52806147e-02
  2.64283633e-02  3.31698263e-02  3.65584186e-02  3.97550313e-02
  4.04949388e-02  4.40473152e-02  4.61495724e-02  4.87292079e-02
  4.99059570e-02  5.04781312e-02  5.31744563e-02  6.07011110e-02
  6.10370156e-02  6.16896881e-02  6.68496411e-02  6.79895674e-02
  6.93326988e-02  7.06533881e-02  7.28706572e-02  7.37726889e-02
  7.42367551e-02  7.83171433e-02  7.93144780e-02  7.97441675e-02
  8.08346668e-02  8.33473069e-02  8.47640843e-02  8.62791741e-02
  8.98479173e-02  9.29276322e-02  9.35630392e-02  9.37200800e-02
  9.47668110e-02  9.65243374e-02  1.00171171e-01  1.03498425e-01
  1.04467323e-01  1.06367971e-01  1.08967742e-01  1.09884864e-01
  1.09925614e-01  1.10052857e-01  1.11094644e-01  1.15065489e-01
  1.15495888e-01  1.17378147e-01  1.17750628e-01  1.20595013e-01
  1.21753973e-01  1.26603187e-01  1.30034948e-01  1.32091756e-01
  1.33450366e-01  1.34163671e-01  1.37667624e-01  1.38846268e-01
  1.40026747e-01  1.43267832e-01  1.44072084e-01  1.48874063e-01
  1.55931808e-01  1.56960740e-01  1.58593779e-01  1.65862851e-01
  1.67074598e-01  1.67508199e-01  1.68631971e-01  1.73997783e-01
  1.76020183e-01  1.76691325e-01  1.81992643e-01  1.82538993e-01
  1.85354324e-01  1.87104854e-01  1.87418229e-01  1.87843073e-01
  1.91275699e-01  1.93345546e-01  1.94383322e-01  1.94644886e-01
  1.94693852e-01  1.95178210e-01  1.98427391e-01  1.99077699e-01
  2.00921228e-01  2.06836467e-01  2.10870193e-01  2.16973611e-01
  2.17532767e-01  2.18230013e-01  2.22738762e-01  2.25344595e-01
  2.26477826e-01  2.28417120e-01  2.30870623e-01  2.33305022e-01
  2.36709210e-01  2.36971178e-01  2.39123762e-01  2.42956624e-01
  2.47308591e-01  2.47684713e-01  2.52173228e-01  2.53107640e-01
  2.60722200e-01  2.60925041e-01  2.61870392e-01  2.68895310e-01
  2.71908537e-01  2.73518819e-01  2.73687143e-01  2.80371602e-01
  2.86014431e-01  2.88577840e-01  2.89624541e-01  2.89666203e-01
  2.90383697e-01  2.94956156e-01  2.95410544e-01  2.95575501e-01
  2.99331003e-01  3.05994251e-01  3.06209031e-01  3.10194117e-01
  3.12198677e-01  3.14560782e-01  3.15254260e-01  3.16470518e-01
  3.18635372e-01  3.25796050e-01  3.28012605e-01  3.31521076e-01
  3.36475419e-01  3.36798170e-01  3.37344006e-01  3.45097402e-01
  3.48137664e-01  3.54307007e-01  3.59992453e-01  3.63094177e-01
  3.63294534e-01  3.63758888e-01  3.66150676e-01  3.74436494e-01
  3.75289523e-01  3.77235645e-01  3.79839527e-01  3.83379679e-01
  3.88420148e-01  3.90099997e-01  3.93299402e-01  3.94266106e-01
  3.94959029e-01  3.95340725e-01  3.98580315e-01  4.01513007e-01
  4.01972307e-01  4.02590464e-01  4.04594126e-01  4.07320655e-01
  4.10181708e-01  4.12916069e-01  4.16826625e-01  4.19563510e-01
  4.21462256e-01  4.24359994e-01  4.28705630e-01  4.32123693e-01
  4.33239672e-01  4.35183707e-01  4.35549618e-01  4.42190679e-01
  4.44469606e-01  4.52120249e-01  4.52817192e-01  4.54957232e-01
  4.64345623e-01  4.65068239e-01  4.65634736e-01  4.66469199e-01
  4.69208718e-01  4.70369101e-01  4.74489916e-01  4.75627367e-01
  4.76161437e-01  4.78278973e-01  4.80444454e-01  4.82783183e-01
  4.87712349e-01  4.89498021e-01  4.90284729e-01  4.92599254e-01
  4.93837194e-01  4.94343020e-01  4.97619530e-01  4.98718191e-01
  5.00228818e-01  5.03725724e-01  5.09587559e-01  5.10618377e-01
  5.17156015e-01  5.18204773e-01  5.19214083e-01  5.19867323e-01
  5.25535045e-01  5.28785847e-01  5.29308040e-01  5.30655017e-01
  5.33252437e-01  5.34371273e-01  5.34979806e-01  5.36589055e-01
  5.37610755e-01  5.41992405e-01  5.44391196e-01  5.46649343e-01
  5.47445984e-01  5.53234727e-01  5.56101511e-01  5.60504234e-01
  5.62042066e-01  5.66769156e-01  5.67601903e-01  5.69197280e-01
  5.69830380e-01  5.72877804e-01  5.75162220e-01  5.79737719e-01
  5.84293561e-01  5.85231193e-01  5.90804970e-01  5.95369726e-01
  5.95990017e-01  5.99132297e-01  6.01278179e-01  6.05294921e-01
  6.06309167e-01  6.07089012e-01  6.08018707e-01  6.09705072e-01
  6.13950496e-01  6.18402125e-01  6.20685871e-01  6.21666933e-01
  6.23533582e-01  6.30741675e-01  6.31764765e-01  6.34944136e-01
  6.36996404e-01  6.37840798e-01  6.38862494e-01  6.41376041e-01
  6.43689419e-01  6.45135599e-01  6.48841022e-01  6.50427948e-01
  6.60786162e-01  6.63980391e-01  6.69513171e-01  6.69825452e-01
  6.74363855e-01  6.77164380e-01  6.78440729e-01  6.82967470e-01
  6.91323298e-01  6.92136736e-01  6.97523797e-01  7.08394184e-01
  7.09128492e-01  7.17312057e-01  7.18327025e-01  7.31066290e-01
  7.34839354e-01  7.37839829e-01  7.40401941e-01  7.43088357e-01
  7.46481819e-01  7.50319766e-01  7.59892373e-01  7.60828937e-01
  7.61353487e-01  7.62183174e-01  7.65536252e-01  7.65910560e-01
  7.70766897e-01  7.73891194e-01  7.74867859e-01  7.77165055e-01
  7.79509790e-01  7.82377485e-01  7.85171869e-01  7.87861716e-01
  7.92277813e-01  7.93857417e-01  7.97279696e-01  7.97752002e-01
  7.99144653e-01  8.00127571e-01  8.03486340e-01  8.04394220e-01
  8.05275703e-01  8.07633636e-01  8.08885295e-01  8.10206210e-01
  8.14503796e-01  8.16135448e-01  8.20750227e-01  8.21038962e-01
  8.23447005e-01  8.25108476e-01  8.26292991e-01  8.34704788e-01
  8.36680847e-01  8.45257803e-01  8.48297631e-01  8.49462330e-01
  8.54161426e-01  8.56110241e-01  8.57049305e-01  8.60509132e-01
  8.62245232e-01  8.65007496e-01  8.65255957e-01  8.69946596e-01
  8.71857505e-01  8.74575860e-01  8.75731120e-01  8.78191899e-01
  8.79068828e-01  8.79942766e-01  8.82962213e-01  8.88803155e-01
  8.89414144e-01  8.91145732e-01  8.91869166e-01  8.93901434e-01
  8.98390079e-01  8.99138871e-01  9.03546589e-01  9.04579872e-01
  9.13713121e-01  9.14303385e-01  9.14626141e-01  9.20287957e-01
  9.22660368e-01  9.23965404e-01  9.24514625e-01  9.29237192e-01
  9.29971848e-01  9.33603077e-01  9.35218917e-01  9.40339312e-01
  9.40651802e-01  9.40922161e-01  9.47263839e-01  9.49476035e-01
  9.52557958e-01  9.55702232e-01  9.56541748e-01  9.57200848e-01
  9.57849255e-01  9.61574474e-01  9.63460387e-01  9.72304343e-01
  9.73875077e-01  9.78495007e-01  9.79046061e-01  9.80544314e-01
  9.81809901e-01  9.82233572e-01  9.84906937e-01  9.85855911e-01
  9.87754026e-01  9.91556702e-01  9.91953686e-01  9.97933583e-01
  9.98877679e-01  1.00038760e+00  1.00088706e+00  1.00556612e+00
  1.00775123e+00  1.00808106e+00  1.01044048e+00  1.01168870e+00
  1.02199329e+00  1.02417595e+00  1.02618793e+00  1.02876753e+00
  1.03134410e+00  1.03519252e+00  1.04078118e+00  1.04165985e+00
  1.04323479e+00  1.05144099e+00  1.05351728e+00  1.05735924e+00
  1.05832017e+00  1.06260873e+00  1.06627933e+00  1.06749673e+00
  1.07207825e+00  1.07370713e+00  1.07718344e+00  1.07828430e+00
  1.07918706e+00  1.08265177e+00  1.08372056e+00  1.09657301e+00
  1.09699034e+00  1.10011318e+00  1.10095520e+00  1.10186633e+00
  1.10373827e+00  1.10487387e+00  1.11560076e+00  1.11848045e+00
  1.12661981e+00  1.12792425e+00  1.13040708e+00  1.13165845e+00
  1.13429604e+00  1.13446642e+00  1.13522510e+00  1.13980924e+00
  1.14143492e+00  1.14736811e+00  1.15348872e+00  1.15813762e+00
  1.16153787e+00  1.16257022e+00  1.16308473e+00  1.16620914e+00
  1.16999788e+00  1.17158352e+00  1.17287522e+00  1.17352889e+00
  1.17765572e+00  1.18174072e+00  1.18385491e+00  1.18509932e+00
  1.18575898e+00  1.18876924e+00  1.19837693e+00  1.20525663e+00
  1.20591222e+00  1.21661112e+00  1.21826391e+00  1.22160928e+00
  1.22593285e+00  1.22709128e+00  1.22841519e+00  1.23185947e+00
  1.23520742e+00  1.24120170e+00  1.24732903e+00  1.24976727e+00
  1.25371470e+00  1.25402553e+00  1.26237705e+00  1.26582847e+00
  1.26725280e+00  1.27407403e+00  1.27498777e+00  1.27745517e+00
  1.28737990e+00  1.28792728e+00  1.28840984e+00  1.29124327e+00
  1.29877961e+00  1.30719677e+00  1.30813532e+00  1.31004251e+00
  1.31724384e+00  1.31821687e+00  1.32153948e+00  1.32295702e+00
  1.32856998e+00  1.33721928e+00  1.34148300e+00  1.34335891e+00
  1.34746723e+00  1.35721347e+00  1.36549009e+00  1.36594444e+00
  1.37031496e+00  1.38088967e+00  1.38376186e+00  1.38471853e+00
  1.39340696e+00  1.39482823e+00  1.39826297e+00  1.40349775e+00
  1.40399912e+00  1.41312773e+00  1.41744801e+00  1.41756345e+00
  1.41995464e+00  1.42401012e+00  1.43868522e+00  1.44403121e+00
  1.44677247e+00  1.44960066e+00  1.45201097e+00  1.45454601e+00
  1.45982190e+00  1.46408408e+00  1.46993426e+00  1.47229766e+00
  1.47482627e+00  1.47740342e+00  1.48169111e+00  1.48605199e+00
  1.48715064e+00  1.48922893e+00  1.49489773e+00  1.49709877e+00
  1.50180420e+00  1.50346193e+00  1.50759763e+00  1.51243558e+00
  1.51966324e+00  1.52256580e+00  1.52724189e+00  1.53545336e+00
  1.54241951e+00  1.55447428e+00  1.55637370e+00  1.55736259e+00
  1.56457471e+00  1.57012971e+00  1.57381292e+00  1.59880886e+00
  1.60703340e+00  1.61042566e+00  1.62582751e+00  1.63310747e+00
  1.63474671e+00  1.65047787e+00  1.65287246e+00  1.65482408e+00
  1.65896539e+00  1.66660726e+00  1.69057475e+00  1.71113629e+00
  1.71308406e+00  1.75220960e+00  1.75690224e+00  1.76006579e+00
  1.77132460e+00  1.79760022e+00  1.85793271e+00  1.90033563e+00
  1.90550668e+00  1.98048979e+00  1.99542834e+00  2.05861842e+00
  2.07687459e+00  2.15359304e+00  2.20971749e+00  2.25061322e+00
  2.27087780e+00  2.33172818e+00  2.39336425e+00  2.42114495e+00
  2.45207119e+00  2.47791094e+00  2.50761814e+00  2.53272245e+00
  2.58113534e+00  2.62104185e+00  2.66949278e+00  2.68266988e+00
  2.75537759e+00  2.78192542e+00  2.78914442e+00  2.82345170e+00
  2.84460991e+00  2.86217358e+00  2.95268335e+00  2.97322864e+00
  3.00642917e+00  3.05710938e+00  3.07097868e+00  3.07706858e+00
  3.13171667e+00  3.14787042e+00  3.15778420e+00  3.16704777e+00
  3.23980249e+00  3.24864050e+00  3.26495169e+00  3.27545065e+00
  3.28975856e+00  3.31960785e+00  3.32667713e+00  3.32806582e+00
  3.37871974e+00  3.38436769e+00  3.40344709e+00  3.41285016e+00
  3.41732455e+00  3.42981091e+00  3.45378528e+00  3.45880397e+00
  3.48538646e+00  3.50154892e+00  3.50425918e+00  3.52704836e+00
  3.54131995e+00  3.56349475e+00  3.57511993e+00  3.58410229e+00
  3.59083516e+00  3.63096277e+00  3.65460393e+00  3.68800647e+00
  3.72499088e+00  3.75157509e+00  3.77196370e+00  3.81406582e+00
  3.82225481e+00  3.83845459e+00  3.85769828e+00  3.88929415e+00
  3.91850892e+00  3.92825639e+00  3.97366197e+00  3.98993371e+00
  4.01237184e+00  4.02132206e+00  4.04727746e+00  4.05968913e+00
  4.06151780e+00  4.07158132e+00  4.11042131e+00  4.12396110e+00
  4.21664908e+00  4.25082005e+00  4.26514035e+00  4.26984633e+00
  4.35553214e+00  4.36578882e+00  4.38317372e+00  4.40874441e+00
  4.46587425e+00  4.48101676e+00  4.48507053e+00  4.59966891e+00
  4.61231561e+00  4.64492637e+00  4.65222899e+00  4.77788062e+00
  4.81309494e+00  4.84439992e+00  4.91439300e+00  4.93861504e+00
  4.97405097e+00  5.01733245e+00  5.04965771e+00  5.11457466e+00
  5.19300663e+00  5.29320422e+00  5.29767342e+00  5.35289331e+00
  5.39956534e+00  5.47755034e+00  5.48326043e+00  5.48767709e+00
  5.60860197e+00  5.67300370e+00  5.67902882e+00  5.72590298e+00
  5.74072550e+00  5.76130931e+00  5.81422233e+00  5.90564317e+00
  5.95727409e+00  5.98790103e+00  6.04899440e+00  6.06849403e+00
  6.10327152e+00  6.15163101e+00  6.18825197e+00  6.23237129e+00
  6.24856496e+00  6.36914593e+00  6.41516862e+00  6.44110746e+00
  6.47399694e+00  6.58899086e+00  6.62698429e+00  6.74959272e+00
  6.82862626e+00  6.85752536e+00  6.91701421e+00  7.09946069e+00
  7.11895042e+00  7.14716650e+00  7.19625540e+00  7.22156623e+00
  7.26128766e+00  7.30084465e+00  7.36356593e+00  7.37308601e+00
  7.44619091e+00  7.54470222e+00  7.60234154e+00  7.64575376e+00
  7.77282455e+00  7.79012189e+00  8.05150559e+00  8.07807598e+00
  8.12596784e+00  8.49337764e+00  1.12309641e+01  1.31234239e+01
  1.33649550e+01  1.40589776e+01  1.57977223e+01  1.75360391e+01]
E1 = -1914.9073327316596  E_coul = 799.7167791298486
cycle= 2 E= -474.554696655197  delta_E= -0.128  |g|= 0.639  |ddm|= 2.54
    CPU time for cycle= 2    328.77 sec, wall time     10.45 sec
diis-norm(errvec)=2.89274
diis-c [-1.39838506  0.42545491  0.57454509]
  HOMO = -0.143279393450177  LUMO = -0.00848497182325183
  mo_energy =
[-2.06393461e+01 -2.06392913e+01 -2.06108023e+01 -1.14778951e+01
 -1.13246681e+01 -1.13236391e+01 -2.45169559e+00 -2.45123549e+00
 -2.45118402e+00 -2.45081640e+00 -2.45049483e+00 -2.45015101e+00
 -2.44911822e+00 -2.44908434e+00 -2.44815999e+00 -2.44787112e+00
 -2.44766057e+00 -2.44744458e+00 -2.42986181e+00 -2.41847995e+00
 -2.41820560e+00 -2.41790918e+00 -2.41784388e+00 -2.41778084e+00
 -1.64601718e+00 -1.50153000e+00 -1.47378721e+00 -1.14272459e+00
 -9.94079638e-01 -9.02696536e-01 -8.38349876e-01 -8.14231862e-01
 -7.57703720e-01 -7.29373102e-01 -6.94692796e-01 -6.82428999e-01
 -6.09161346e-01 -5.88543744e-01 -5.50344577e-01 -5.35438755e-01
 -5.07806958e-01 -3.02708038e-01 -2.40908914e-01 -2.40178475e-01
 -1.91542019e-01 -1.70101554e-01 -1.65380374e-01 -1.44500211e-01
 -1.43827681e-01 -1.43279393e-01 -8.48497182e-03 -7.84726508e-03
  3.07553404e-03  3.20768082e-03  3.32478913e-03  1.21735194e-02
  1.45503790e-02  2.00345080e-02  2.59556672e-02  2.79637361e-02
  2.81791758e-02  2.86097605e-02  3.25777014e-02  3.56661568e-02
  3.70998745e-02  4.19549212e-02  4.30965483e-02  4.74548220e-02
  4.80517893e-02  5.62985085e-02  5.65112130e-02  5.90195255e-02
  6.13975275e-02  6.23078073e-02  6.38697376e-02  6.41374357e-02
  6.61903272e-02  6.83002263e-02  6.88428151e-02  6.99202848e-02
  7.35182395e-02  7.43029639e-02  7.63608035e-02  7.93751886e-02
  8.00923829e-02  8.29594610e-02  8.43902267e-02  8.48427662e-02
  8.50288255e-02  8.69806917e-02  8.71863762e-02  8.86302642e-02
  8.91753697e-02  9.13445265e-02  9.21965885e-02  9.43091551e-02
  9.48026017e-02  9.64553585e-02  9.98021066e-02  9.99807720e-02
  1.00275512e-01  1.06459936e-01  1.09431724e-01  1.10089372e-01
  1.12581193e-01  1.15295389e-01  1.17522948e-01  1.19050409e-01
  1.20161248e-01  1.25393674e-01  1.26504297e-01  1.28153048e-01
  1.30401062e-01  1.30612639e-01  1.32160399e-01  1.41017334e-01
  1.43239689e-01  1.44485131e-01  1.46399889e-01  1.52592479e-01
  1.53308563e-01  1.55486021e-01  1.57198603e-01  1.58112567e-01
  1.58630079e-01  1.60817744e-01  1.61184255e-01  1.64121603e-01
  1.65100968e-01  1.68297277e-01  1.68666177e-01  1.68858672e-01
  1.70153116e-01  1.70730814e-01  1.71483389e-01  1.77052046e-01
  1.77830997e-01  1.79590750e-01  1.79949962e-01  1.81187305e-01
  1.95713845e-01  1.99548491e-01  1.99960518e-01  2.04544315e-01
  2.04753032e-01  2.05628795e-01  2.11460969e-01  2.11566167e-01
  2.13406689e-01  2.15646856e-01  2.17187265e-01  2.20283902e-01
  2.22305227e-01  2.22947581e-01  2.23847921e-01  2.25742073e-01
  2.26896058e-01  2.28534579e-01  2.32357173e-01  2.32859092e-01
  2.36572620e-01  2.39715115e-01  2.39908342e-01  2.40944180e-01
  2.41811910e-01  2.48009031e-01  2.50088097e-01  2.50193458e-01
  2.54560217e-01  2.57285366e-01  2.60969362e-01  2.62170213e-01
  2.66949807e-01  2.67400669e-01  2.68293453e-01  2.70405694e-01
  2.71530774e-01  2.71657243e-01  2.82276405e-01  2.82653800e-01
  2.83237084e-01  2.89351271e-01  3.02187696e-01  3.02808290e-01
  3.05914733e-01  3.07570099e-01  3.08629411e-01  3.11857742e-01
  3.14161062e-01  3.16808619e-01  3.21264457e-01  3.23692871e-01
  3.25860479e-01  3.28099945e-01  3.30039222e-01  3.30787369e-01
  3.31560054e-01  3.36127322e-01  3.38308191e-01  3.42478251e-01
  3.43405554e-01  3.46206879e-01  3.49729234e-01  3.50188834e-01
  3.52798400e-01  3.55708238e-01  3.55795605e-01  3.58647308e-01
  3.60283950e-01  3.61526256e-01  3.68314010e-01  3.69950879e-01
  3.70817352e-01  3.73536702e-01  3.78272335e-01  3.79404627e-01
  3.84186235e-01  3.88976659e-01  3.96989156e-01  3.98945952e-01
  4.02073673e-01  4.05026854e-01  4.06550708e-01  4.08371391e-01
  4.11539521e-01  4.13006221e-01  4.16224029e-01  4.16649773e-01
  4.21836307e-01  4.22652668e-01  4.28052497e-01  4.29275601e-01
  4.30226833e-01  4.32837006e-01  4.33564385e-01  4.35400608e-01
  4.37932766e-01  4.38550729e-01  4.40736967e-01  4.41910982e-01
  4.46321020e-01  4.46809707e-01  4.49964692e-01  4.50360405e-01
  4.56463208e-01  4.57300657e-01  4.59119594e-01  4.61782166e-01
  4.63975400e-01  4.67499079e-01  4.68447685e-01  4.70040184e-01
  4.73235676e-01  4.76414339e-01  4.79653398e-01  4.81146403e-01
  4.84629322e-01  4.86806610e-01  4.87874632e-01  4.89032882e-01
  4.92694635e-01  4.93623478e-01  4.94601549e-01  4.96251703e-01
  4.99381310e-01  5.01682495e-01  5.04346200e-01  5.04435205e-01
  5.09354953e-01  5.12988385e-01  5.14602363e-01  5.17785618e-01
  5.18518664e-01  5.23000691e-01  5.24230151e-01  5.28995242e-01
  5.31643712e-01  5.35435140e-01  5.37293468e-01  5.39080606e-01
  5.40308670e-01  5.41526255e-01  5.42375087e-01  5.45046512e-01
  5.46620535e-01  5.48073669e-01  5.53003571e-01  5.53158957e-01
  5.56419202e-01  5.57797556e-01  5.61082252e-01  5.64385707e-01
  5.66000481e-01  5.67219897e-01  5.73709389e-01  5.79708184e-01
  5.79883111e-01  5.81917284e-01  5.84375776e-01  5.86882810e-01
  5.87740387e-01  5.88162555e-01  5.90266830e-01  5.94178421e-01
  6.00233182e-01  6.05331446e-01  6.15628405e-01  6.21505757e-01
  6.22585104e-01  6.23742828e-01  6.26755121e-01  6.32610931e-01
  6.36087858e-01  6.39520900e-01  6.43616094e-01  6.48734365e-01
  6.50775442e-01  6.52403063e-01  6.55899452e-01  6.65170668e-01
  6.65924224e-01  6.70002419e-01  6.72094070e-01  6.74131932e-01
  6.76987708e-01  6.82145434e-01  6.90934487e-01  6.93048352e-01
  6.96995392e-01  6.99660034e-01  7.05311922e-01  7.06952704e-01
  7.10504169e-01  7.13484045e-01  7.14859890e-01  7.18012078e-01
  7.19083140e-01  7.21199513e-01  7.22503645e-01  7.26987155e-01
  7.27645420e-01  7.28532011e-01  7.30816475e-01  7.34234791e-01
  7.41542542e-01  7.42635509e-01  7.43924382e-01  7.47629525e-01
  7.48101206e-01  7.49963334e-01  7.50996473e-01  7.55163954e-01
  7.57732429e-01  7.58950442e-01  7.59777462e-01  7.60397845e-01
  7.65289995e-01  7.69150821e-01  7.70428708e-01  7.71302800e-01
  7.78174375e-01  7.78754736e-01  7.82882302e-01  7.87712661e-01
  7.88566749e-01  7.89699677e-01  7.97709562e-01  7.99006042e-01
  7.99497436e-01  8.01912678e-01  8.03343052e-01  8.16257724e-01
  8.17982023e-01  8.19240968e-01  8.23147915e-01  8.25795246e-01
  8.27908820e-01  8.30187571e-01  8.30552476e-01  8.31392145e-01
  8.32517137e-01  8.38171263e-01  8.40218111e-01  8.43279007e-01
  8.44376532e-01  8.44798533e-01  8.46554192e-01  8.47884442e-01
  8.48695627e-01  8.50956937e-01  8.51166844e-01  8.56995676e-01
  8.57732558e-01  8.58142685e-01  8.60622452e-01  8.63222528e-01
  8.65883810e-01  8.69773254e-01  8.70286819e-01  8.72235357e-01
  8.80537728e-01  8.83653309e-01  8.84626498e-01  8.90204753e-01
  8.92992382e-01  8.95868713e-01  8.96767709e-01  8.99691208e-01
  9.03977091e-01  9.05746976e-01  9.07707587e-01  9.08446667e-01
  9.12765503e-01  9.13837610e-01  9.18482942e-01  9.18570925e-01
  9.20833519e-01  9.22451434e-01  9.27234154e-01  9.27923467e-01
  9.31643881e-01  9.32409713e-01  9.36588935e-01  9.39424949e-01
  9.39499781e-01  9.40998846e-01  9.42711507e-01  9.44097502e-01
  9.44762113e-01  9.51427029e-01  9.52070012e-01  9.55033808e-01
  9.57732980e-01  9.58494525e-01  9.60120016e-01  9.62586422e-01
  9.63572879e-01  9.71577718e-01  9.72702459e-01  9.76187446e-01
  9.82272207e-01  9.83978979e-01  9.84992503e-01  9.88680947e-01
  9.91825883e-01  9.94398092e-01  9.96250505e-01  9.98389763e-01
  1.00700523e+00  1.01032491e+00  1.01214597e+00  1.01388839e+00
  1.01444343e+00  1.01902367e+00  1.01984243e+00  1.02475722e+00
  1.02630217e+00  1.02834125e+00  1.03284595e+00  1.04048672e+00
  1.04145583e+00  1.04612872e+00  1.04830139e+00  1.04865934e+00
  1.04924610e+00  1.05322996e+00  1.05581985e+00  1.05680526e+00
  1.05818160e+00  1.06351187e+00  1.06594963e+00  1.07076442e+00
  1.07150194e+00  1.07441476e+00  1.08488848e+00  1.08592858e+00
  1.08652118e+00  1.08715605e+00  1.08929606e+00  1.09189485e+00
  1.09343810e+00  1.09606710e+00  1.09766384e+00  1.10402790e+00
  1.10688148e+00  1.10737137e+00  1.10857057e+00  1.11089597e+00
  1.11885712e+00  1.12042009e+00  1.12565488e+00  1.12690685e+00
  1.12695769e+00  1.12883535e+00  1.13203230e+00  1.13565579e+00
  1.14322405e+00  1.14816324e+00  1.15473191e+00  1.15883563e+00
  1.16151846e+00  1.16630550e+00  1.17521480e+00  1.17646733e+00
  1.18014338e+00  1.18096149e+00  1.18145969e+00  1.19058763e+00
  1.19705000e+00  1.19837402e+00  1.19969199e+00  1.20069484e+00
  1.20934195e+00  1.21217269e+00  1.21484472e+00  1.21687331e+00
  1.21941394e+00  1.22282490e+00  1.22528170e+00  1.23508758e+00
  1.23647719e+00  1.23754805e+00  1.24126016e+00  1.24479434e+00
  1.24829659e+00  1.24917390e+00  1.25335156e+00  1.25702913e+00
  1.26240438e+00  1.26690773e+00  1.26752044e+00  1.26858560e+00
  1.27232546e+00  1.27368998e+00  1.27925094e+00  1.29475746e+00
  1.29639146e+00  1.29868949e+00  1.30030791e+00  1.30519675e+00
  1.31097537e+00  1.31242721e+00  1.31360980e+00  1.31891113e+00
  1.32668417e+00  1.32808386e+00  1.33076975e+00  1.33159427e+00
  1.33481822e+00  1.33668052e+00  1.34685082e+00  1.35524470e+00
  1.35644679e+00  1.36170285e+00  1.36762243e+00  1.36861519e+00
  1.37226998e+00  1.37467984e+00  1.37562148e+00  1.37801913e+00
  1.37919350e+00  1.39224996e+00  1.39717475e+00  1.40367721e+00
  1.40693538e+00  1.41321930e+00  1.41644198e+00  1.41852786e+00
  1.41891876e+00  1.42306152e+00  1.42728778e+00  1.42862153e+00
  1.42982210e+00  1.44007647e+00  1.44284684e+00  1.44559361e+00
  1.44778187e+00  1.45771957e+00  1.46178962e+00  1.46790274e+00
  1.46914422e+00  1.47274252e+00  1.48136207e+00  1.48453655e+00
  1.48889509e+00  1.51183164e+00  1.52354447e+00  1.52469864e+00
  1.52944739e+00  1.53179537e+00  1.56256263e+00  1.56625404e+00
  1.57020968e+00  1.57298471e+00  1.57516563e+00  1.57704952e+00
  1.60963154e+00  1.62919113e+00  1.64846217e+00  1.65043355e+00
  1.65262192e+00  1.67864444e+00  1.68784291e+00  1.69945555e+00
  1.75716001e+00  1.80714948e+00  1.87075531e+00  1.89847327e+00
  1.91122513e+00  1.94879808e+00  1.98539011e+00  2.01138187e+00
  2.07800557e+00  2.11875145e+00  2.16764999e+00  2.25288434e+00
  2.29368727e+00  2.35010637e+00  2.41221333e+00  2.43742353e+00
  2.48024407e+00  2.48386343e+00  2.52124882e+00  2.55014687e+00
  2.62509863e+00  2.67563661e+00  2.69740189e+00  2.72247468e+00
  2.79009624e+00  2.80488291e+00  2.83477371e+00  2.87168092e+00
  2.87564948e+00  2.89572928e+00  2.98052223e+00  3.00825367e+00
  3.05318499e+00  3.06469443e+00  3.11419446e+00  3.12615509e+00
  3.15063416e+00  3.18266346e+00  3.20298472e+00  3.23001828e+00
  3.29437252e+00  3.30072802e+00  3.30983151e+00  3.31050830e+00
  3.32049928e+00  3.33468673e+00  3.34902065e+00  3.37866065e+00
  3.38384705e+00  3.38590230e+00  3.41145105e+00  3.41521947e+00
  3.41819859e+00  3.45144308e+00  3.45298010e+00  3.46720463e+00
  3.47100482e+00  3.50187459e+00  3.52240012e+00  3.52714013e+00
  3.53080603e+00  3.54314924e+00  3.54446435e+00  3.57421313e+00
  3.61583994e+00  3.67299080e+00  3.69611280e+00  3.70367754e+00
  3.71326443e+00  3.76845199e+00  3.77536268e+00  3.80604249e+00
  3.85579565e+00  3.85770363e+00  3.87707760e+00  3.89566298e+00
  3.92451611e+00  3.95188749e+00  3.95253890e+00  3.96073981e+00
  3.96871991e+00  3.99578452e+00  4.02723475e+00  4.04603988e+00
  4.05980735e+00  4.08058299e+00  4.10054433e+00  4.15807194e+00
  4.25009480e+00  4.28319857e+00  4.29471081e+00  4.30110054e+00
  4.38937085e+00  4.39787122e+00  4.42401974e+00  4.44026307e+00
  4.45519998e+00  4.50662535e+00  4.51937703e+00  4.52519110e+00
  4.65601479e+00  4.68044822e+00  4.68267707e+00  4.71995492e+00
  4.77839782e+00  4.82604821e+00  4.84109864e+00  4.94843452e+00
  5.01532944e+00  5.05655797e+00  5.08686190e+00  5.14509381e+00
  5.17986769e+00  5.32797511e+00  5.33596408e+00  5.39784798e+00
  5.44054771e+00  5.49137187e+00  5.49847661e+00  5.53107413e+00
  5.57779047e+00  5.60498499e+00  5.61144807e+00  5.68640850e+00
  5.75651324e+00  5.76248802e+00  5.85075276e+00  5.88221941e+00
  5.99046807e+00  5.99836746e+00  6.09263173e+00  6.11534354e+00
  6.12036192e+00  6.14666708e+00  6.20821024e+00  6.21400877e+00
  6.28733700e+00  6.39699724e+00  6.45195541e+00  6.46985287e+00
  6.48391596e+00  6.59830112e+00  6.65175493e+00  6.72558540e+00
  6.80440311e+00  6.85888644e+00  6.90728736e+00  6.97527409e+00
  7.00033481e+00  7.04466511e+00  7.10931186e+00  7.21224848e+00
  7.23921051e+00  7.31024933e+00  7.35950272e+00  7.36555784e+00
  7.43595299e+00  7.46843480e+00  7.53122716e+00  7.53973079e+00
  7.75638345e+00  7.77691547e+00  7.93895096e+00  8.01005092e+00
  8.10835498e+00  8.45633797e+00  1.12317872e+01  1.31318578e+01
  1.33785819e+01  1.40905509e+01  1.58944002e+01  1.75166234e+01]
E1 = -1919.3972541510136  E_coul = 804.087292116801
cycle= 3 E= -474.674105087599  delta_E= -0.119  |g|= 0.0965  |ddm|= 1.07
    CPU time for cycle= 3    332.05 sec, wall time     10.52 sec
diis-norm(errvec)=0.587054
diis-c [-0.22888307 -0.04068102  0.06963944  0.97104158]
  HOMO = -0.127894245893709  LUMO = 0.00253878024198421
  mo_energy =
[-2.06537931e+01 -2.06537022e+01 -2.05806377e+01 -1.14189284e+01
 -1.12893064e+01 -1.12882606e+01 -2.44336821e+00 -2.44310510e+00
 -2.44194846e+00 -2.44192991e+00 -2.43818293e+00 -2.43804430e+00
 -2.43739280e+00 -2.43734677e+00 -2.43136252e+00 -2.43136210e+00
 -2.43117468e+00 -2.43112970e+00 -2.39327766e+00 -2.39020415e+00
 -2.38658116e+00 -2.38645004e+00 -2.38612891e+00 -2.38608540e+00
 -1.62784724e+00 -1.47656070e+00 -1.46385534e+00 -1.11998269e+00
 -9.76592938e-01 -8.90814983e-01 -8.23279560e-01 -7.98958613e-01
 -7.41386744e-01 -7.13790385e-01 -6.75755153e-01 -6.71641201e-01
 -6.06915162e-01 -5.75040722e-01 -5.34564921e-01 -5.20908610e-01
 -4.98099534e-01 -2.79591197e-01 -2.25239747e-01 -2.24527577e-01
 -1.76794485e-01 -1.62901899e-01 -1.52129830e-01 -1.34259383e-01
 -1.33175413e-01 -1.27894246e-01  2.53878024e-03  3.18379311e-03
  1.11797704e-02  1.13757170e-02  1.17360350e-02  1.92245458e-02
  2.25562066e-02  2.66752281e-02  3.11731669e-02  3.14153990e-02
  3.20542106e-02  3.29501075e-02  3.66488755e-02  3.92611973e-02
  4.08153492e-02  4.59436752e-02  4.64164459e-02  5.29097469e-02
  5.34324907e-02  5.93090556e-02  5.96018697e-02  6.21908818e-02
  6.46078158e-02  6.65462965e-02  6.67157943e-02  6.69833872e-02
  6.87725574e-02  7.23924127e-02  7.25142019e-02  7.36132640e-02
  7.76239543e-02  7.84709578e-02  8.19775616e-02  8.28133141e-02
  8.29548726e-02  8.53610792e-02  8.69297125e-02  8.71811324e-02
  8.74611541e-02  9.21999332e-02  9.36429779e-02  9.37346618e-02
  9.38281870e-02  9.40354928e-02  9.41232998e-02  9.72036107e-02
  9.77542902e-02  9.84782138e-02  1.05359622e-01  1.05494519e-01
  1.05830179e-01  1.09063090e-01  1.10634266e-01  1.12520289e-01
  1.15893237e-01  1.18076405e-01  1.20809410e-01  1.23905894e-01
  1.24935214e-01  1.29137653e-01  1.29344891e-01  1.32218239e-01
  1.33255097e-01  1.33591833e-01  1.40127032e-01  1.45229566e-01
  1.46503489e-01  1.48498448e-01  1.52747122e-01  1.58252071e-01
  1.59938952e-01  1.62700686e-01  1.63542247e-01  1.64194284e-01
  1.64779344e-01  1.66364659e-01  1.70185151e-01  1.71918459e-01
  1.73291195e-01  1.73578753e-01  1.76082793e-01  1.76369754e-01
  1.76833942e-01  1.77548141e-01  1.78391005e-01  1.81581654e-01
  1.83703976e-01  1.84245439e-01  1.85893060e-01  1.90018470e-01
  2.03096236e-01  2.04225393e-01  2.05335121e-01  2.09250397e-01
  2.12177404e-01  2.16584231e-01  2.18364108e-01  2.18926267e-01
  2.20962836e-01  2.22999283e-01  2.23505289e-01  2.26530160e-01
  2.27970543e-01  2.29091536e-01  2.30965267e-01  2.32498753e-01
  2.34773554e-01  2.35963977e-01  2.41091636e-01  2.41373942e-01
  2.44898324e-01  2.45530843e-01  2.46537087e-01  2.47838843e-01
  2.50262547e-01  2.58047932e-01  2.58373737e-01  2.58552730e-01
  2.64323958e-01  2.66223572e-01  2.71453865e-01  2.73559105e-01
  2.76355749e-01  2.76543202e-01  2.78115636e-01  2.78252799e-01
  2.80072195e-01  2.80360923e-01  2.89217805e-01  2.90167270e-01
  2.94060415e-01  2.99091312e-01  3.11353702e-01  3.11730961e-01
  3.12167434e-01  3.15640515e-01  3.16625315e-01  3.19024856e-01
  3.21554320e-01  3.23717593e-01  3.30393530e-01  3.31501896e-01
  3.33505511e-01  3.36583074e-01  3.40067589e-01  3.40765986e-01
  3.43875414e-01  3.45517724e-01  3.47144422e-01  3.54041549e-01
  3.54854613e-01  3.56872228e-01  3.58410019e-01  3.61939933e-01
  3.64299851e-01  3.65006562e-01  3.66605295e-01  3.68216378e-01
  3.71312960e-01  3.72064573e-01  3.76175936e-01  3.78716156e-01
  3.79484725e-01  3.79629974e-01  3.88538804e-01  3.89699770e-01
  3.93230356e-01  3.97142152e-01  4.05110111e-01  4.06595972e-01
  4.12245313e-01  4.13301481e-01  4.13664680e-01  4.15162940e-01
  4.17625896e-01  4.19903262e-01  4.27306675e-01  4.28014350e-01
  4.33046070e-01  4.35250349e-01  4.38329222e-01  4.38959603e-01
  4.39773150e-01  4.40464084e-01  4.43344448e-01  4.45644670e-01
  4.48093241e-01  4.49905067e-01  4.52849437e-01  4.55145860e-01
  4.57455375e-01  4.59477543e-01  4.59921423e-01  4.62022221e-01
  4.65839028e-01  4.69368814e-01  4.70049083e-01  4.70445738e-01
  4.72839900e-01  4.77142652e-01  4.78185529e-01  4.78438330e-01
  4.79808677e-01  4.85300061e-01  4.90657405e-01  4.91998287e-01
  4.95584845e-01  4.97709309e-01  5.00029000e-01  5.00586112e-01
  5.02227961e-01  5.04911268e-01  5.05184864e-01  5.07952910e-01
  5.10776420e-01  5.10893496e-01  5.13209058e-01  5.13882367e-01
  5.20417682e-01  5.22252544e-01  5.24498017e-01  5.28967521e-01
  5.29418813e-01  5.36363448e-01  5.38202021e-01  5.39392638e-01
  5.41795991e-01  5.42892094e-01  5.46063452e-01  5.48044831e-01
  5.51089531e-01  5.53491625e-01  5.55300337e-01  5.56149243e-01
  5.60077760e-01  5.63075886e-01  5.66659329e-01  5.68887720e-01
  5.70335203e-01  5.71013011e-01  5.72532956e-01  5.77509841e-01
  5.78005444e-01  5.78087112e-01  5.85520244e-01  5.89375093e-01
  5.90894293e-01  5.93862526e-01  5.95151261e-01  5.97639277e-01
  5.97969443e-01  6.00628139e-01  6.02895371e-01  6.06750303e-01
  6.17502100e-01  6.17600949e-01  6.29362453e-01  6.30232170e-01
  6.30478503e-01  6.33372951e-01  6.36876110e-01  6.43187537e-01
  6.46968796e-01  6.47773056e-01  6.59417720e-01  6.61105948e-01
  6.63989165e-01  6.65890071e-01  6.67962828e-01  6.74991030e-01
  6.76925816e-01  6.77893604e-01  6.84477071e-01  6.88789543e-01
  6.91572807e-01  6.96431620e-01  7.07543562e-01  7.09277118e-01
  7.11613302e-01  7.13189504e-01  7.17495781e-01  7.22412041e-01
  7.24697432e-01  7.29972742e-01  7.30350292e-01  7.31678682e-01
  7.32821100e-01  7.36165908e-01  7.38249443e-01  7.42023447e-01
  7.42504753e-01  7.43533903e-01  7.46745673e-01  7.48350637e-01
  7.57177936e-01  7.59479303e-01  7.60587812e-01  7.63756544e-01
  7.63911926e-01  7.65789182e-01  7.66389332e-01  7.67495246e-01
  7.72246903e-01  7.73629242e-01  7.74005903e-01  7.75776210e-01
  7.78050112e-01  7.82816296e-01  7.84003567e-01  7.85987966e-01
  7.89103128e-01  7.91659506e-01  7.95564724e-01  7.98851255e-01
  8.01137343e-01  8.02728923e-01  8.08180673e-01  8.09282257e-01
  8.13237224e-01  8.16303181e-01  8.19333960e-01  8.29423709e-01
  8.30949101e-01  8.31623783e-01  8.36267803e-01  8.39075704e-01
  8.39261823e-01  8.41196329e-01  8.42548564e-01  8.42597696e-01
  8.45370950e-01  8.49940770e-01  8.50655899e-01  8.51964552e-01
  8.55035851e-01  8.55884115e-01  8.58012249e-01  8.58640101e-01
  8.60436045e-01  8.63104437e-01  8.64208145e-01  8.67336083e-01
  8.70070839e-01  8.72263228e-01  8.73271286e-01  8.75308328e-01
  8.76458569e-01  8.83283429e-01  8.84402207e-01  8.85125218e-01
  8.90608688e-01  8.96561181e-01  8.97898352e-01  9.06153327e-01
  9.07272931e-01  9.08911789e-01  9.11632916e-01  9.12718867e-01
  9.16584090e-01  9.17656675e-01  9.19426782e-01  9.21339141e-01
  9.25775236e-01  9.26600298e-01  9.28585240e-01  9.30734289e-01
  9.35803224e-01  9.37744102e-01  9.39237891e-01  9.41119936e-01
  9.43300880e-01  9.47244822e-01  9.48243329e-01  9.51179522e-01
  9.52858358e-01  9.53466335e-01  9.55463326e-01  9.57065866e-01
  9.58751163e-01  9.63698620e-01  9.66542204e-01  9.67716668e-01
  9.70387266e-01  9.70724222e-01  9.73378915e-01  9.74652985e-01
  9.79973490e-01  9.84115634e-01  9.84639252e-01  9.89644143e-01
  9.91384070e-01  9.95738804e-01  9.99790635e-01  1.00093013e+00
  1.00632475e+00  1.00656713e+00  1.00788739e+00  1.01225761e+00
  1.02161158e+00  1.02484550e+00  1.02543261e+00  1.02719145e+00
  1.02810245e+00  1.03148308e+00  1.03272032e+00  1.03931377e+00
  1.03983148e+00  1.04270044e+00  1.04856674e+00  1.05467676e+00
  1.05601822e+00  1.05927667e+00  1.05953209e+00  1.06220467e+00
  1.06409467e+00  1.06627438e+00  1.06865475e+00  1.07177555e+00
  1.07243523e+00  1.08044471e+00  1.08079744e+00  1.08437177e+00
  1.08705340e+00  1.08989520e+00  1.09935870e+00  1.09958455e+00
  1.10006234e+00  1.10243300e+00  1.10414139e+00  1.10446442e+00
  1.10882752e+00  1.10997978e+00  1.11357774e+00  1.11881141e+00
  1.12418042e+00  1.12473666e+00  1.12533776e+00  1.12688267e+00
  1.13231301e+00  1.13618601e+00  1.13861584e+00  1.14121285e+00
  1.14267119e+00  1.14323795e+00  1.14525680e+00  1.15108576e+00
  1.15846649e+00  1.16120271e+00  1.17127832e+00  1.17490456e+00
  1.17703768e+00  1.18207789e+00  1.19067420e+00  1.19372664e+00
  1.19447805e+00  1.19605893e+00  1.19773460e+00  1.20921886e+00
  1.20990303e+00  1.21101808e+00  1.21511947e+00  1.21805219e+00
  1.22643428e+00  1.22753780e+00  1.23005235e+00  1.23310461e+00
  1.23547850e+00  1.24039467e+00  1.24353311e+00  1.25124497e+00
  1.25218636e+00  1.25419976e+00  1.25821407e+00  1.26284336e+00
  1.26650147e+00  1.26933408e+00  1.27249968e+00  1.27382464e+00
  1.27933211e+00  1.28379632e+00  1.28447834e+00  1.28612106e+00
  1.28836979e+00  1.29128264e+00  1.29922730e+00  1.31412837e+00
  1.31583285e+00  1.31804691e+00  1.31840329e+00  1.32476469e+00
  1.32860213e+00  1.33199179e+00  1.33356814e+00  1.33922882e+00
  1.34562227e+00  1.34708884e+00  1.35128801e+00  1.35215376e+00
  1.35496236e+00  1.35800989e+00  1.36884928e+00  1.37640052e+00
  1.37774304e+00  1.38381128e+00  1.38868309e+00  1.38974779e+00
  1.39610167e+00  1.39720792e+00  1.39920313e+00  1.39994622e+00
  1.40186349e+00  1.41321671e+00  1.41541613e+00  1.42333669e+00
  1.42904519e+00  1.43151712e+00  1.43463407e+00  1.43869366e+00
  1.44078082e+00  1.44384066e+00  1.44557998e+00  1.44717095e+00
  1.44863257e+00  1.45776756e+00  1.46196243e+00  1.46524338e+00
  1.46921366e+00  1.47689450e+00  1.47846891e+00  1.49045817e+00
  1.49503563e+00  1.49551905e+00  1.50245412e+00  1.50646430e+00
  1.51054603e+00  1.53285763e+00  1.53922491e+00  1.54472357e+00
  1.55261180e+00  1.55531578e+00  1.58085743e+00  1.58967915e+00
  1.59036658e+00  1.59195360e+00  1.59692565e+00  1.59816585e+00
  1.62648204e+00  1.64901855e+00  1.66871807e+00  1.67117730e+00
  1.67711933e+00  1.69443919e+00  1.70384652e+00  1.71927216e+00
  1.77367545e+00  1.82321785e+00  1.88547096e+00  1.91569789e+00
  1.92938104e+00  1.96589310e+00  2.00255187e+00  2.02482921e+00
  2.09121202e+00  2.13528268e+00  2.18033538e+00  2.26867346e+00
  2.30479048e+00  2.36200794e+00  2.42681932e+00  2.45462338e+00
  2.49694100e+00  2.50137583e+00  2.53729917e+00  2.56760518e+00
  2.64095047e+00  2.69627304e+00  2.71835806e+00  2.74223439e+00
  2.80973287e+00  2.82329849e+00  2.85654927e+00  2.89132045e+00
  2.89523329e+00  2.91253864e+00  2.99931366e+00  3.03253419e+00
  3.07063596e+00  3.08582430e+00  3.13654801e+00  3.14650502e+00
  3.17064800e+00  3.20238444e+00  3.22441585e+00  3.25147944e+00
  3.31142740e+00  3.31956429e+00  3.32051890e+00  3.32166628e+00
  3.34161592e+00  3.35868804e+00  3.37018205e+00  3.38649384e+00
  3.39551146e+00  3.40719728e+00  3.42519996e+00  3.42881658e+00
  3.43782266e+00  3.46778708e+00  3.47112325e+00  3.48578889e+00
  3.49142694e+00  3.51691823e+00  3.53755345e+00  3.54399521e+00
  3.54435809e+00  3.55829554e+00  3.56080681e+00  3.59140761e+00
  3.63491055e+00  3.69329126e+00  3.71726007e+00  3.72528515e+00
  3.74334432e+00  3.79072168e+00  3.79448690e+00  3.82713872e+00
  3.87500535e+00  3.87569611e+00  3.90328004e+00  3.91408561e+00
  3.94571032e+00  3.97580152e+00  3.98091090e+00  3.98315985e+00
  3.98913405e+00  4.02430453e+00  4.04621351e+00  4.06456953e+00
  4.07706474e+00  4.09732416e+00  4.12048013e+00  4.17801808e+00
  4.26707161e+00  4.29986548e+00  4.30786763e+00  4.31986427e+00
  4.40633568e+00  4.41621909e+00  4.44447126e+00  4.45884239e+00
  4.48294891e+00  4.52332589e+00  4.53522087e+00  4.54348578e+00
  4.67493628e+00  4.69811200e+00  4.70638547e+00  4.74154447e+00
  4.79489849e+00  4.84022787e+00  4.85407616e+00  4.96731346e+00
  5.03265223e+00  5.07115787e+00  5.10421842e+00  5.16266120e+00
  5.19685356e+00  5.34437446e+00  5.35240868e+00  5.41759449e+00
  5.45881027e+00  5.50843465e+00  5.51298772e+00  5.55024679e+00
  5.59693240e+00  5.62369282e+00  5.63214002e+00  5.70513759e+00
  5.77487690e+00  5.77843508e+00  5.86796264e+00  5.89744064e+00
  6.00342112e+00  6.01720762e+00  6.10998668e+00  6.13480717e+00
  6.14054577e+00  6.16380811e+00  6.22258315e+00  6.22874669e+00
  6.30524972e+00  6.41051298e+00  6.46782380e+00  6.48403543e+00
  6.49614849e+00  6.61187884e+00  6.66743148e+00  6.74213422e+00
  6.82152515e+00  6.87359707e+00  6.92154024e+00  6.99230259e+00
  7.01893427e+00  7.06492534e+00  7.13172080e+00  7.22129366e+00
  7.24726911e+00  7.31956476e+00  7.36273531e+00  7.36728742e+00
  7.44473413e+00  7.48151447e+00  7.54207076e+00  7.54581241e+00
  7.76724508e+00  7.78000499e+00  7.95716531e+00  8.01861853e+00
  8.11320851e+00  8.47754956e+00  1.12459492e+01  1.31520199e+01
  1.33819098e+01  1.41136367e+01  1.59223162e+01  1.75522211e+01]
E1 = -1918.4152638530577  E_coul = 803.0981770063233
cycle= 4 E= -474.681229900121  delta_E= -0.00712  |g|= 0.0552  |ddm|= 0.37
    CPU time for cycle= 4    330.55 sec, wall time     10.45 sec
diis-norm(errvec)=0.257031
diis-c [-0.03097163 -0.06974146 -0.05605325  0.27452595  0.85126876]
  HOMO = -0.132884860665069  LUMO = 0.00220685662311195
  mo_energy =
[-2.06396449e+01 -2.06395942e+01 -2.05689468e+01 -1.14474067e+01
 -1.13049778e+01 -1.13039336e+01 -2.44091520e+00 -2.44046471e+00
 -2.44036150e+00 -2.44016933e+00 -2.44009553e+00 -2.44003615e+00
 -2.43840720e+00 -2.43840340e+00 -2.43330288e+00 -2.43304209e+00
 -2.43300151e+00 -2.43283118e+00 -2.40621374e+00 -2.39638104e+00
 -2.39465307e+00 -2.39405437e+00 -2.39389299e+00 -2.39381550e+00
 -1.63312913e+00 -1.48105562e+00 -1.46593079e+00 -1.12611851e+00
 -9.80311839e-01 -8.92940684e-01 -8.27221600e-01 -8.00897692e-01
 -7.44723666e-01 -7.17139694e-01 -6.80120467e-01 -6.74455948e-01
 -6.06989061e-01 -5.80972130e-01 -5.36412827e-01 -5.22216316e-01
 -5.00819192e-01 -2.83938816e-01 -2.27382407e-01 -2.26616574e-01
 -1.79090723e-01 -1.65270486e-01 -1.55942259e-01 -1.38559210e-01
 -1.37353087e-01 -1.32884861e-01  2.20685662e-03  2.91162005e-03
  1.09687654e-02  1.11632893e-02  1.13729560e-02  1.95833598e-02
  2.29427719e-02  2.59079807e-02  3.05615535e-02  3.09584320e-02
  3.11982909e-02  3.26118232e-02  3.59371680e-02  3.84736951e-02
  4.01968287e-02  4.55235473e-02  4.62581086e-02  5.21614812e-02
  5.27551767e-02  5.90818845e-02  5.93699438e-02  6.20312711e-02
  6.45395629e-02  6.62115141e-02  6.65176183e-02  6.68301000e-02
  6.86865330e-02  7.19951160e-02  7.24712663e-02  7.33812311e-02
  7.71413394e-02  7.81403910e-02  8.12832074e-02  8.26401600e-02
  8.28257758e-02  8.53247514e-02  8.68812549e-02  8.70480913e-02
  8.72092782e-02  9.15068525e-02  9.25564238e-02  9.26981413e-02
  9.32012397e-02  9.33057755e-02  9.34533691e-02  9.68342775e-02
  9.74515344e-02  9.80917308e-02  1.04754108e-01  1.04932426e-01
  1.04961424e-01  1.08691595e-01  1.10765479e-01  1.12007108e-01
  1.15542247e-01  1.17886366e-01  1.20381353e-01  1.22976972e-01
  1.24065714e-01  1.28835972e-01  1.29285819e-01  1.31623271e-01
  1.32654381e-01  1.32928577e-01  1.38865044e-01  1.44536087e-01
  1.45947756e-01  1.47893944e-01  1.51735472e-01  1.57868141e-01
  1.59762324e-01  1.62419646e-01  1.62553823e-01  1.62974539e-01
  1.63656162e-01  1.65556667e-01  1.68420203e-01  1.70640278e-01
  1.72282181e-01  1.73589860e-01  1.75096271e-01  1.75407404e-01
  1.75729347e-01  1.76503720e-01  1.77527511e-01  1.81297311e-01
  1.83352589e-01  1.84489173e-01  1.85546688e-01  1.88843627e-01
  2.02673573e-01  2.03996653e-01  2.05285527e-01  2.09460626e-01
  2.10983492e-01  2.16404910e-01  2.17522178e-01  2.18079450e-01
  2.19312313e-01  2.20801097e-01  2.22655729e-01  2.25964649e-01
  2.27347892e-01  2.28505647e-01  2.30125144e-01  2.31469326e-01
  2.33963974e-01  2.34369808e-01  2.39715728e-01  2.40113260e-01
  2.43816121e-01  2.45509582e-01  2.45793839e-01  2.46730520e-01
  2.48543200e-01  2.56417555e-01  2.57240700e-01  2.57427810e-01
  2.62913423e-01  2.64826565e-01  2.69533144e-01  2.71399390e-01
  2.74873960e-01  2.75256261e-01  2.76675649e-01  2.77784903e-01
  2.78463874e-01  2.79067198e-01  2.88422384e-01  2.89329655e-01
  2.92049786e-01  2.97363522e-01  3.10447893e-01  3.10652089e-01
[...]
  7.89676430e-01  7.89949960e-01  7.93540293e-01  7.98510570e-01
  7.99825435e-01  8.01013579e-01  8.09055345e-01  8.10437007e-01
  8.11348858e-01  8.14305210e-01  8.16553849e-01  8.28591025e-01
  8.28982730e-01  8.30380979e-01  8.35509842e-01  8.38703697e-01
  8.40061652e-01  8.40461695e-01  8.41635038e-01  8.42157949e-01
  8.43828341e-01  8.49980122e-01  8.50503852e-01  8.53453711e-01
  8.54877417e-01  8.55534949e-01  8.57049543e-01  8.58415007e-01
  8.59101055e-01  8.61607452e-01  8.62113257e-01  8.66868736e-01
  8.69848225e-01  8.70297239e-01  8.70945783e-01  8.75220528e-01
  8.76077443e-01  8.81584616e-01  8.82584730e-01  8.83548463e-01
  8.91191866e-01  8.95578593e-01  8.97486973e-01  9.04095676e-01
  9.05879962e-01  9.07419797e-01  9.10263679e-01  9.11013660e-01
  9.14955210e-01  9.16355631e-01  9.19121161e-01  9.19745848e-01
  9.24453337e-01  9.25400501e-01  9.27606357e-01  9.29257419e-01
  9.33826020e-01  9.35105696e-01  9.36703389e-01  9.39735077e-01
  9.42381800e-01  9.44170225e-01  9.47480335e-01  9.50488712e-01
  9.51895155e-01  9.52678546e-01  9.54106029e-01  9.55508166e-01
  9.56791236e-01  9.62642942e-01  9.64547814e-01  9.66136665e-01
  9.68375751e-01  9.69390770e-01  9.71723534e-01  9.73559334e-01
  9.77291447e-01  9.82742617e-01  9.83000867e-01  9.87050515e-01
  9.92258934e-01  9.94759963e-01  9.97452598e-01  9.99837456e-01
  1.00404808e+00  1.00560034e+00  1.00677064e+00  1.00935544e+00
  1.01906783e+00  1.02200873e+00  1.02393066e+00  1.02538325e+00
  1.02620578e+00  1.02936317e+00  1.03118930e+00  1.03731580e+00
  1.03875730e+00  1.04098838e+00  1.04602496e+00  1.05255613e+00
  1.05359041e+00  1.05714319e+00  1.05921226e+00  1.06065427e+00
  1.06149481e+00  1.06470456e+00  1.06713632e+00  1.06902264e+00
  1.07091875e+00  1.07714371e+00  1.07798234e+00  1.08173201e+00
  1.08425475e+00  1.08722579e+00  1.09718532e+00  1.09756792e+00
  1.09838059e+00  1.09936366e+00  1.10230276e+00  1.10276230e+00
  1.10616922e+00  1.10718537e+00  1.11034283e+00  1.11638372e+00
  1.12086860e+00  1.12170129e+00  1.12219612e+00  1.12451793e+00
  1.13082419e+00  1.13303268e+00  1.13703477e+00  1.14011577e+00
  1.14053784e+00  1.14146548e+00  1.14333365e+00  1.14834679e+00
  1.15653602e+00  1.15944179e+00  1.16817287e+00  1.17289240e+00
  1.17491505e+00  1.18007294e+00  1.18901233e+00  1.19061166e+00
  1.19310226e+00  1.19443734e+00  1.19493864e+00  1.20652123e+00
  1.20825847e+00  1.20949043e+00  1.21345548e+00  1.21479044e+00
  1.22377951e+00  1.22460342e+00  1.22819804e+00  1.22953588e+00
  1.23285690e+00  1.23714943e+00  1.23981644e+00  1.24975277e+00
  1.25050715e+00  1.25126108e+00  1.25531469e+00  1.26018849e+00
  1.26254781e+00  1.26519843e+00  1.26831419e+00  1.27002963e+00
  1.27546058e+00  1.28080794e+00  1.28143891e+00  1.28269596e+00
  1.28524161e+00  1.28819132e+00  1.29556772e+00  1.31030014e+00
  1.31155014e+00  1.31501377e+00  1.31522892e+00  1.32048150e+00
  1.32490364e+00  1.32767198e+00  1.32951497e+00  1.33523549e+00
  1.34199053e+00  1.34379924e+00  1.34786471e+00  1.34844999e+00
  1.35069906e+00  1.35415985e+00  1.36385233e+00  1.37210157e+00
  1.37350986e+00  1.37994326e+00  1.38435506e+00  1.38586104e+00
  1.39275823e+00  1.39289894e+00  1.39458263e+00  1.39564487e+00
  1.39738547e+00  1.40877066e+00  1.41157141e+00  1.42014907e+00
  1.42488308e+00  1.42842446e+00  1.43187124e+00  1.43469947e+00
  1.43613290e+00  1.43944126e+00  1.44246217e+00  1.44409598e+00
  1.44481293e+00  1.45341046e+00  1.45867898e+00  1.46199822e+00
  1.46533943e+00  1.47245801e+00  1.47467628e+00  1.48498113e+00
  1.48976643e+00  1.49060421e+00  1.49909065e+00  1.50151409e+00
  1.50711141e+00  1.52867363e+00  1.53599963e+00  1.54059043e+00
  1.54785749e+00  1.55068594e+00  1.57592956e+00  1.58619401e+00
  1.58667304e+00  1.58726625e+00  1.59205542e+00  1.59307457e+00
  1.62222181e+00  1.64300810e+00  1.66425248e+00  1.66713619e+00
  1.67241597e+00  1.69101022e+00  1.69965489e+00  1.71341036e+00
  1.76881167e+00  1.81981116e+00  1.88107061e+00  1.90958506e+00
  1.92425272e+00  1.96153749e+00  1.99716412e+00  2.02020818e+00
  2.08662824e+00  2.13010867e+00  2.17648462e+00  2.26381193e+00
  2.30102945e+00  2.35845100e+00  2.42193824e+00  2.44953916e+00
  2.49179916e+00  2.49301649e+00  2.53196660e+00  2.56088441e+00
  2.63587013e+00  2.68918219e+00  2.71023566e+00  2.73541484e+00
  2.80311509e+00  2.81768575e+00  2.84734896e+00  2.88435228e+00
  2.88831566e+00  2.90627357e+00  2.99252376e+00  3.02297562e+00
  3.06744175e+00  3.07845961e+00  3.12872570e+00  3.13943485e+00
  3.16392333e+00  3.19617307e+00  3.21740867e+00  3.24374999e+00
  3.30734290e+00  3.31339394e+00  3.32257590e+00  3.32329358e+00
  3.33523495e+00  3.34878829e+00  3.36301630e+00  3.39161079e+00
  3.39745299e+00  3.39944117e+00  3.42556202e+00  3.42945235e+00
  3.43098237e+00  3.46498048e+00  3.46764668e+00  3.48036556e+00
  3.48495222e+00  3.51172005e+00  3.53388005e+00  3.53869335e+00
  3.54103875e+00  3.55378514e+00  3.55607468e+00  3.58589246e+00
  3.62839051e+00  3.68566039e+00  3.71057389e+00  3.71875504e+00
  3.73264746e+00  3.78404672e+00  3.78811161e+00  3.81936452e+00
  3.86959615e+00  3.87218513e+00  3.89756309e+00  3.91005985e+00
  3.93903294e+00  3.97044801e+00  3.97492071e+00  3.97753229e+00
  3.98417449e+00  4.01822475e+00  4.04191056e+00  4.06050509e+00
  4.07283328e+00  4.09446538e+00  4.11405557e+00  4.17294057e+00
  4.26404680e+00  4.29817180e+00  4.30613827e+00  4.31473991e+00
  4.40338540e+00  4.41191443e+00  4.43918216e+00  4.45552513e+00
  4.47739754e+00  4.52014367e+00  4.53336652e+00  4.53972940e+00
  4.66998339e+00  4.69471007e+00  4.69870386e+00  4.73792944e+00
  4.79262545e+00  4.83813953e+00  4.85201708e+00  4.96141980e+00
  5.02917310e+00  5.06786674e+00  5.10051259e+00  5.15857287e+00
  5.19354090e+00  5.34063330e+00  5.34827305e+00  5.41344489e+00
  5.45499965e+00  5.50527966e+00  5.51006300e+00  5.54616264e+00
  5.59305653e+00  5.61983966e+00  5.62785139e+00  5.70145962e+00
  5.77038796e+00  5.77492550e+00  5.86412759e+00  5.89455744e+00
  6.00069640e+00  6.01283781e+00  6.10581084e+00  6.13040627e+00
  6.13522967e+00  6.15915376e+00  6.21949731e+00  6.22504142e+00
  6.30091641e+00  6.40697569e+00  6.46398905e+00  6.48077294e+00
  6.49346294e+00  6.60914804e+00  6.66297296e+00  6.73830277e+00
  6.81873767e+00  6.87051233e+00  6.91903810e+00  6.98983414e+00
  7.01732761e+00  7.06019737e+00  7.12665462e+00  7.22092012e+00
  7.24677733e+00  7.31836578e+00  7.36426750e+00  7.36924961e+00
  7.44493430e+00  7.48079304e+00  7.54360277e+00  7.54408671e+00
  7.76702067e+00  7.78105610e+00  7.95469343e+00  8.01892790e+00
  8.11371245e+00  8.47191699e+00  1.12424216e+01  1.31460662e+01
  1.33829924e+01  1.41057697e+01  1.59105371e+01  1.75401075e+01]
E1 = -1918.6729041235053  E_coul = 803.3526921818795
cycle= 15 E= -474.684354995012  delta_E= -7.46e-10  |g|= 1.01e-05  |ddm|= 0.000148
    CPU time for cycle= 15    325.09 sec, wall time     10.28 sec
  HOMO = -0.133000819338463  LUMO = 0.0038869533145133
  mo_energy =
[-2.06428813e+01 -2.06428119e+01 -2.05778841e+01 -1.14478506e+01
 -1.13060349e+01 -1.13049903e+01 -2.44374133e+00 -2.44344353e+00
 -2.44294619e+00 -2.44275120e+00 -2.43643127e+00 -2.43641880e+00
 -2.43423384e+00 -2.43423314e+00 -2.43071483e+00 -2.43040463e+00
 -2.43020559e+00 -2.42999982e+00 -2.40800313e+00 -2.39582839e+00
 -2.39416554e+00 -2.39371771e+00 -2.39352877e+00 -2.39346285e+00
 -1.63455025e+00 -1.48422411e+00 -1.46711706e+00 -1.12724742e+00
 -9.81699796e-01 -8.94183685e-01 -8.28427424e-01 -8.03144429e-01
 -7.46294554e-01 -7.19656981e-01 -6.81703976e-01 -6.75780399e-01
 -6.08162454e-01 -5.82077952e-01 -5.40010512e-01 -5.24457315e-01
 -5.02178904e-01 -2.82486825e-01 -2.25976460e-01 -2.25271054e-01
 -1.77140766e-01 -1.66886573e-01 -1.57430825e-01 -1.39581878e-01
 -1.38383874e-01 -1.33000819e-01  3.88695331e-03  4.63295160e-03
  1.17631292e-02  1.20845470e-02  1.21834000e-02  2.05751572e-02
  2.44275972e-02  2.59923989e-02  3.07718393e-02  3.12038066e-02
  3.16603843e-02  3.31122152e-02  3.60610124e-02  3.85431909e-02
  4.03685315e-02  4.52516982e-02  4.60516705e-02  5.26366478e-02
  5.32232928e-02  5.92396066e-02  5.95266119e-02  6.22507944e-02
  6.49185570e-02  6.65579965e-02  6.67947886e-02  6.71337013e-02
  6.87565274e-02  7.22821000e-02  7.28099690e-02  7.36270555e-02
  7.74943523e-02  7.84172043e-02  8.15154758e-02  8.27660844e-02
  8.32692493e-02  8.53117698e-02  8.70698628e-02  8.71242436e-02
  8.73314393e-02  9.14555511e-02  9.25859638e-02  9.28746499e-02
  9.33155925e-02  9.33782587e-02  9.36618932e-02  9.69599800e-02
  9.75913331e-02  9.81921882e-02  1.04804185e-01  1.05065272e-01
  1.05193585e-01  1.08791008e-01  1.10701504e-01  1.12060096e-01
  1.15702607e-01  1.18027959e-01  1.20568864e-01  1.23026638e-01
  1.24136387e-01  1.28785522e-01  1.29371662e-01  1.31848715e-01
  1.32618956e-01  1.32884425e-01  1.38834449e-01  1.44570435e-01
  1.45993048e-01  1.47930147e-01  1.51747258e-01  1.57870844e-01
  1.60274440e-01  1.62351643e-01  1.62734442e-01  1.63142729e-01
  1.63800370e-01  1.65637517e-01  1.68456218e-01  1.70761639e-01
  1.72383981e-01  1.73911461e-01  1.75399878e-01  1.75658864e-01
  1.75970379e-01  1.76549857e-01  1.77716855e-01  1.81286130e-01
  1.83708691e-01  1.84973724e-01  1.85747691e-01  1.88645855e-01
  2.02860529e-01  2.04363656e-01  2.05830055e-01  2.10003198e-01
  2.11100418e-01  2.16384032e-01  2.17483294e-01  2.18093447e-01
  2.18993655e-01  2.20730798e-01  2.22852294e-01  2.25942299e-01
  2.27363237e-01  2.28544945e-01  2.30604595e-01  2.31523031e-01
  2.33866288e-01  2.34506479e-01  2.39588626e-01  2.40081318e-01
  2.43889410e-01  2.45819865e-01  2.45998786e-01  2.46903105e-01
  2.48669800e-01  2.56565418e-01  2.57660534e-01  2.57892618e-01
  2.63270327e-01  2.64786887e-01  2.69363162e-01  2.71262549e-01
  2.74930940e-01  2.75392077e-01  2.76617582e-01  2.78009779e-01
  2.78757261e-01  2.79432853e-01  2.88705575e-01  2.89608008e-01
  2.92062683e-01  2.97468049e-01  3.10583263e-01  3.10661863e-01
  3.11813221e-01  3.15034303e-01  3.15872750e-01  3.18350809e-01
  3.20655561e-01  3.23383566e-01  3.29255341e-01  3.30520901e-01
  3.33504278e-01  3.35257420e-01  3.38755217e-01  3.39221999e-01
  3.41804405e-01  3.44873275e-01  3.45209556e-01  3.52129564e-01
  3.52721624e-01  3.55485737e-01  3.56504879e-01  3.59751526e-01
  3.62283079e-01  3.63818489e-01  3.66316706e-01  3.66460784e-01
  3.70026593e-01  3.70487211e-01  3.75537816e-01  3.77204071e-01
  3.78258753e-01  3.78934099e-01  3.87369335e-01  3.87661020e-01
  3.92499743e-01  3.97429743e-01  4.03810297e-01  4.05440686e-01
  4.11186380e-01  4.12198767e-01  4.12570179e-01  4.15901831e-01
  4.18496208e-01  4.19874170e-01  4.26499392e-01  4.27154872e-01
  4.30821820e-01  4.33343183e-01  4.36866980e-01  4.38247461e-01
  4.39198402e-01  4.40101279e-01  4.41576865e-01  4.44310517e-01
  4.46740333e-01  4.48198422e-01  4.50426273e-01  4.52812266e-01
  4.55231180e-01  4.57191287e-01  4.58818499e-01  4.59685924e-01
  4.65470148e-01  4.67438124e-01  4.67768520e-01  4.69357500e-01
  4.72036158e-01  4.75786195e-01  4.77606777e-01  4.77807620e-01
  4.78697407e-01  4.84419291e-01  4.89129946e-01  4.90492406e-01
  4.93991422e-01  4.95673240e-01  4.98299286e-01  4.98421802e-01
  5.01768396e-01  5.03557236e-01  5.04105022e-01  5.06069260e-01
  5.09083254e-01  5.09444921e-01  5.12175918e-01  5.12405736e-01
  5.18541739e-01  5.21058160e-01  5.23267113e-01  5.26816131e-01
  5.27619040e-01  5.34315494e-01  5.36437745e-01  5.37684391e-01
  5.39344113e-01  5.43015054e-01  5.46061536e-01  5.46315698e-01
  5.49514400e-01  5.52047354e-01  5.52753563e-01  5.54921337e-01
  5.57845552e-01  5.60548567e-01  5.63673480e-01  5.65334627e-01
  5.68101478e-01  5.68665259e-01  5.70399129e-01  5.75619027e-01
  5.76435610e-01  5.76481313e-01  5.83187847e-01  5.88522130e-01
  5.89177682e-01  5.92120872e-01  5.94290054e-01  5.95758944e-01
  5.97189028e-01  5.98176766e-01  6.00140358e-01  6.04026487e-01
  6.13915103e-01  6.16352691e-01  6.27207007e-01  6.29910805e-01
  6.31439535e-01  6.32814208e-01  6.36515909e-01  6.41711468e-01
  6.45478243e-01  6.46578509e-01  6.55613249e-01  6.58613769e-01
  6.61287391e-01  6.62783956e-01  6.66116159e-01  6.75184422e-01
  6.76150003e-01  6.77200175e-01  6.82374814e-01  6.85642432e-01
  6.88515999e-01  6.93478859e-01  7.04704810e-01  7.06088177e-01
  7.09038045e-01  7.11341045e-01  7.15455608e-01  7.19844816e-01
  7.21864966e-01  7.27182502e-01  7.27704500e-01  7.30172120e-01
  7.31128892e-01  7.33577054e-01  7.35609268e-01  7.39214625e-01
  7.41099504e-01  7.41293383e-01  7.44198489e-01  7.46921259e-01
  7.54508413e-01  7.56982816e-01  7.58582948e-01  7.61656128e-01
  7.62379176e-01  7.64379510e-01  7.65309766e-01  7.67289844e-01
  7.70771932e-01  7.71574473e-01  7.73025406e-01  7.74076562e-01
  7.77334426e-01  7.81267147e-01  7.82715753e-01  7.83040891e-01
  7.89676392e-01  7.89949252e-01  7.93540211e-01  7.98510280e-01
  7.99825331e-01  8.01013200e-01  8.09055106e-01  8.10436779e-01
  8.11348699e-01  8.14304991e-01  8.16553280e-01  8.28590594e-01
  8.28982379e-01  8.30380853e-01  8.35509654e-01  8.38703301e-01
  8.40061487e-01  8.40461679e-01  8.41634735e-01  8.42157688e-01
  8.43828198e-01  8.49980022e-01  8.50503750e-01  8.53453771e-01
  8.54877327e-01  8.55534738e-01  8.57048982e-01  8.58414744e-01
  8.59100628e-01  8.61607096e-01  8.62112954e-01  8.66868649e-01
  8.69847741e-01  8.70296769e-01  8.70945429e-01  8.75220425e-01
  8.76076974e-01  8.81584200e-01  8.82584010e-01  8.83547905e-01
  8.91191604e-01  8.95578407e-01  8.97486865e-01  9.04095151e-01
  9.05879492e-01  9.07419412e-01  9.10263152e-01  9.11013205e-01
  9.14954983e-01  9.16355420e-01  9.19120892e-01  9.19745602e-01
  9.24453268e-01  9.25400249e-01  9.27606251e-01  9.29257351e-01
  9.33825759e-01  9.35104843e-01  9.36703025e-01  9.39734614e-01
  9.42381504e-01  9.44169607e-01  9.47479978e-01  9.50488376e-01
  9.51894816e-01  9.52677980e-01  9.54105505e-01  9.55507752e-01
  9.56790812e-01  9.62642754e-01  9.64547310e-01  9.66136217e-01
  9.68375660e-01  9.69390428e-01  9.71723091e-01  9.73559098e-01
  9.77290684e-01  9.82742290e-01  9.83000690e-01  9.87050143e-01
  9.92259183e-01  9.94759848e-01  9.97452010e-01  9.99837017e-01
  1.00404759e+00  1.00559995e+00  1.00677039e+00  1.00935478e+00
  1.01906724e+00  1.02200836e+00  1.02393028e+00  1.02538300e+00
  1.02620532e+00  1.02936308e+00  1.03118894e+00  1.03731524e+00
  1.03875692e+00  1.04098799e+00  1.04602470e+00  1.05255576e+00
  1.05359009e+00  1.05714307e+00  1.05921203e+00  1.06065383e+00
  1.06149445e+00  1.06470407e+00  1.06713590e+00  1.06902214e+00
  1.07091853e+00  1.07714285e+00  1.07798207e+00  1.08173167e+00
  1.08425419e+00  1.08722519e+00  1.09718493e+00  1.09756746e+00
  1.09838026e+00  1.09936303e+00  1.10230235e+00  1.10276187e+00
  1.10616866e+00  1.10718497e+00  1.11034235e+00  1.11638358e+00
  1.12086777e+00  1.12170075e+00  1.12219539e+00  1.12451757e+00
  1.13082396e+00  1.13303204e+00  1.13703430e+00  1.14011528e+00
  1.14053705e+00  1.14146509e+00  1.14333332e+00  1.14834623e+00
  1.15653547e+00  1.15944178e+00  1.16817231e+00  1.17289172e+00
  1.17491456e+00  1.18007233e+00  1.18901168e+00  1.19061107e+00
  1.19310194e+00  1.19443689e+00  1.19493813e+00  1.20652058e+00
  1.20825787e+00  1.20948993e+00  1.21345475e+00  1.21478991e+00
  1.22377909e+00  1.22460311e+00  1.22819754e+00  1.22953525e+00
  1.23285636e+00  1.23714884e+00  1.23981560e+00  1.24975202e+00
  1.25050632e+00  1.25126033e+00  1.25531403e+00  1.26018757e+00
  1.26254734e+00  1.26519743e+00  1.26831318e+00  1.27002919e+00
  1.27546008e+00  1.28080735e+00  1.28143833e+00  1.28269539e+00
  1.28524123e+00  1.28819077e+00  1.29556686e+00  1.31029955e+00
  1.31154936e+00  1.31501306e+00  1.31522830e+00  1.32048086e+00
  1.32490312e+00  1.32767117e+00  1.32951430e+00  1.33523489e+00
  1.34199025e+00  1.34379839e+00  1.34786396e+00  1.34844922e+00
  1.35069846e+00  1.35415891e+00  1.36385160e+00  1.37210073e+00
  1.37350902e+00  1.37994250e+00  1.38435412e+00  1.38586037e+00
  1.39275720e+00  1.39289754e+00  1.39458148e+00  1.39564389e+00
  1.39738457e+00  1.40877002e+00  1.41157098e+00  1.42014841e+00
  1.42488196e+00  1.42842387e+00  1.43187081e+00  1.43469844e+00
  1.43613180e+00  1.43944004e+00  1.44246159e+00  1.44409538e+00
  1.44481237e+00  1.45341021e+00  1.45867823e+00  1.46199765e+00
  1.46533811e+00  1.47245707e+00  1.47467608e+00  1.48497950e+00
  1.48976501e+00  1.49060278e+00  1.49908978e+00  1.50151333e+00
  1.50711036e+00  1.52867296e+00  1.53599960e+00  1.54058967e+00
  1.54785672e+00  1.55068492e+00  1.57592962e+00  1.58619366e+00
  1.58667191e+00  1.58726580e+00  1.59205437e+00  1.59307316e+00
  1.62222177e+00  1.64300806e+00  1.66425197e+00  1.66713561e+00
  1.67241478e+00  1.69101010e+00  1.69965479e+00  1.71341075e+00
  1.76881220e+00  1.81981112e+00  1.88107138e+00  1.90958561e+00
  1.92425315e+00  1.96153847e+00  1.99716505e+00  2.02020903e+00
  2.08662922e+00  2.13010999e+00  2.17648581e+00  2.26381294e+00
  2.30103070e+00  2.35845202e+00  2.42193913e+00  2.44954001e+00
  2.49179997e+00  2.49301749e+00  2.53196733e+00  2.56088522e+00
  2.63587058e+00  2.68918237e+00  2.71023621e+00  2.73541517e+00
  2.80311593e+00  2.81768602e+00  2.84734925e+00  2.88435265e+00
  2.88831612e+00  2.90627419e+00  2.99252448e+00  3.02297581e+00
  3.06744149e+00  3.07845963e+00  3.12872585e+00  3.13943496e+00
  3.16392369e+00  3.19617326e+00  3.21740899e+00  3.24375008e+00
  3.30734306e+00  3.31339433e+00  3.32257625e+00  3.32329389e+00
  3.33523501e+00  3.34878848e+00  3.36301650e+00  3.39161155e+00
  3.39745339e+00  3.39944129e+00  3.42556150e+00  3.42945189e+00
  3.43098277e+00  3.46498084e+00  3.46764567e+00  3.48036553e+00
  3.48495241e+00  3.51172028e+00  3.53388011e+00  3.53869362e+00
  3.54103882e+00  3.55378530e+00  3.55607514e+00  3.58589331e+00
  3.62839098e+00  3.68566092e+00  3.71057449e+00  3.71875539e+00
  3.73264429e+00  3.78404738e+00  3.78811210e+00  3.81936521e+00
  3.86959649e+00  3.87218527e+00  3.89756162e+00  3.91006013e+00
  3.93903347e+00  3.97044805e+00  3.97491901e+00  3.97753112e+00
  3.98417452e+00  4.01822314e+00  4.04191067e+00  4.06050543e+00
  4.07283353e+00  4.09446576e+00  4.11405627e+00  4.17294118e+00
  4.26404726e+00  4.29817191e+00  4.30613912e+00  4.31474034e+00
  4.40338595e+00  4.41191489e+00  4.43918249e+00  4.45552543e+00
  4.47739765e+00  4.52014410e+00  4.53336670e+00  4.53972953e+00
  4.66998368e+00  4.69471056e+00  4.69870437e+00  4.73793158e+00
  4.79262740e+00  4.83814122e+00  4.85201811e+00  4.96142027e+00
  5.02917351e+00  5.06786763e+00  5.10051321e+00  5.15857346e+00
  5.19354255e+00  5.34063426e+00  5.34827393e+00  5.41344512e+00
  5.45500004e+00  5.50528094e+00  5.51006429e+00  5.54616297e+00
  5.59305848e+00  5.61984168e+00  5.62785207e+00  5.70146033e+00
  5.77038850e+00  5.77492658e+00  5.86412851e+00  5.89455876e+00
  6.00069774e+00  6.01283879e+00  6.10581200e+00  6.13040807e+00
  6.13523007e+00  6.15915469e+00  6.21949927e+00  6.22504289e+00
  6.30091735e+00  6.40697754e+00  6.46399031e+00  6.48077425e+00
  6.49346496e+00  6.60914964e+00  6.66297465e+00  6.73830484e+00
  6.81874003e+00  6.87051452e+00  6.91904013e+00  6.98983667e+00
  7.01733039e+00  7.06019954e+00  7.12665672e+00  7.22092266e+00
  7.24677979e+00  7.31836824e+00  7.36427019e+00  7.36925242e+00
  7.44493690e+00  7.48079588e+00  7.54360543e+00  7.54408933e+00
  7.76702337e+00  7.78105863e+00  7.95469604e+00  8.01893065e+00
  8.11371499e+00  8.47191894e+00  1.12424237e+01  1.31460677e+01
  1.33829956e+01  1.41057707e+01  1.59105369e+01  1.75401089e+01]
E1 = -1918.6728833538104  E_coul = 803.3526714120218
Extra cycle  E= -474.684354995175  delta_E= -1.63e-10  |g|= 6.07e-06  |ddm|= 8.85e-05
    CPU time for scf_cycle   7038.31 sec, wall time    223.62 sec
    CPU time for SCF   7038.34 sec, wall time    223.62 sec
converged SCF energy = -474.684354995175
